s 0.376610697 _2_ RTR  --- 0 message 32 [0 0 0 0] ------- [2:255 -1:255 32 0] 
s 0.377105697 _2_ MAC  --- 0 message 90 [0 ffffffff 2 800] ------- [2:255 -1:255 32 0] 
r 0.377825722 _7_ MAC  --- 0 message 32 [0 ffffffff 2 800] ------- [2:255 -1:255 32 0] 
r 0.377825727 _1_ MAC  --- 0 message 32 [0 ffffffff 2 800] ------- [2:255 -1:255 32 0] 
r 0.377825811 _5_ MAC  --- 0 message 32 [0 ffffffff 2 800] ------- [2:255 -1:255 32 0] 
r 0.377825838 _4_ MAC  --- 0 message 32 [0 ffffffff 2 800] ------- [2:255 -1:255 32 0] 
r 0.377825867 _3_ MAC  --- 0 message 32 [0 ffffffff 2 800] ------- [2:255 -1:255 32 0] 
r 0.377825890 _9_ MAC  --- 0 message 32 [0 ffffffff 2 800] ------- [2:255 -1:255 32 0] 
r 0.377826039 _6_ MAC  --- 0 message 32 [0 ffffffff 2 800] ------- [2:255 -1:255 32 0] 
r 0.377826074 _8_ MAC  --- 0 message 32 [0 ffffffff 2 800] ------- [2:255 -1:255 32 0] 
r 0.377826094 _0_ MAC  --- 0 message 32 [0 ffffffff 2 800] ------- [2:255 -1:255 32 0] 
r 0.377850722 _7_ RTR  --- 0 message 32 [0 ffffffff 2 800] ------- [2:255 -1:255 32 0] 
r 0.377850727 _1_ RTR  --- 0 message 32 [0 ffffffff 2 800] ------- [2:255 -1:255 32 0] 
r 0.377850811 _5_ RTR  --- 0 message 32 [0 ffffffff 2 800] ------- [2:255 -1:255 32 0] 
r 0.377850838 _4_ RTR  --- 0 message 32 [0 ffffffff 2 800] ------- [2:255 -1:255 32 0] 
r 0.377850867 _3_ RTR  --- 0 message 32 [0 ffffffff 2 800] ------- [2:255 -1:255 32 0] 
r 0.377850890 _9_ RTR  --- 0 message 32 [0 ffffffff 2 800] ------- [2:255 -1:255 32 0] 
r 0.377851039 _6_ RTR  --- 0 message 32 [0 ffffffff 2 800] ------- [2:255 -1:255 32 0] 
r 0.377851074 _8_ RTR  --- 0 message 32 [0 ffffffff 2 800] ------- [2:255 -1:255 32 0] 
r 0.377851094 _0_ RTR  --- 0 message 32 [0 ffffffff 2 800] ------- [2:255 -1:255 32 0] 
s 0.632426405 _7_ RTR  --- 1 message 32 [0 0 0 0] ------- [7:255 -1:255 32 0] 
s 0.633001405 _7_ MAC  --- 1 message 90 [0 ffffffff 7 800] ------- [7:255 -1:255 32 0] 
r 0.633721410 _1_ MAC  --- 1 message 32 [0 ffffffff 7 800] ------- [7:255 -1:255 32 0] 
r 0.633721429 _2_ MAC  --- 1 message 32 [0 ffffffff 7 800] ------- [7:255 -1:255 32 0] 
r 0.633721495 _5_ MAC  --- 1 message 32 [0 ffffffff 7 800] ------- [7:255 -1:255 32 0] 
r 0.633721550 _3_ MAC  --- 1 message 32 [0 ffffffff 7 800] ------- [7:255 -1:255 32 0] 
r 0.633721571 _4_ MAC  --- 1 message 32 [0 ffffffff 7 800] ------- [7:255 -1:255 32 0] 
r 0.633721573 _9_ MAC  --- 1 message 32 [0 ffffffff 7 800] ------- [7:255 -1:255 32 0] 
r 0.633721723 _6_ MAC  --- 1 message 32 [0 ffffffff 7 800] ------- [7:255 -1:255 32 0] 
r 0.633721758 _8_ MAC  --- 1 message 32 [0 ffffffff 7 800] ------- [7:255 -1:255 32 0] 
r 0.633721822 _0_ MAC  --- 1 message 32 [0 ffffffff 7 800] ------- [7:255 -1:255 32 0] 
r 0.633746410 _1_ RTR  --- 1 message 32 [0 ffffffff 7 800] ------- [7:255 -1:255 32 0] 
r 0.633746429 _2_ RTR  --- 1 message 32 [0 ffffffff 7 800] ------- [7:255 -1:255 32 0] 
r 0.633746495 _5_ RTR  --- 1 message 32 [0 ffffffff 7 800] ------- [7:255 -1:255 32 0] 
r 0.633746550 _3_ RTR  --- 1 message 32 [0 ffffffff 7 800] ------- [7:255 -1:255 32 0] 
r 0.633746571 _4_ RTR  --- 1 message 32 [0 ffffffff 7 800] ------- [7:255 -1:255 32 0] 
r 0.633746573 _9_ RTR  --- 1 message 32 [0 ffffffff 7 800] ------- [7:255 -1:255 32 0] 
r 0.633746723 _6_ RTR  --- 1 message 32 [0 ffffffff 7 800] ------- [7:255 -1:255 32 0] 
r 0.633746758 _8_ RTR  --- 1 message 32 [0 ffffffff 7 800] ------- [7:255 -1:255 32 0] 
r 0.633746822 _0_ RTR  --- 1 message 32 [0 ffffffff 7 800] ------- [7:255 -1:255 32 0] 
s 0.736462504 _3_ RTR  --- 2 message 32 [0 0 0 0] ------- [3:255 -1:255 32 0] 
s 0.736917504 _3_ MAC  --- 2 message 90 [0 ffffffff 3 800] ------- [3:255 -1:255 32 0] 
r 0.737637527 _9_ MAC  --- 2 message 32 [0 ffffffff 3 800] ------- [3:255 -1:255 32 0] 
r 0.737637560 _5_ MAC  --- 2 message 32 [0 ffffffff 3 800] ------- [3:255 -1:255 32 0] 
r 0.737637644 _1_ MAC  --- 2 message 32 [0 ffffffff 3 800] ------- [3:255 -1:255 32 0] 
r 0.737637649 _7_ MAC  --- 2 message 32 [0 ffffffff 3 800] ------- [3:255 -1:255 32 0] 
r 0.737637674 _2_ MAC  --- 2 message 32 [0 ffffffff 3 800] ------- [3:255 -1:255 32 0] 
r 0.737637678 _6_ MAC  --- 2 message 32 [0 ffffffff 3 800] ------- [3:255 -1:255 32 0] 
r 0.737637717 _8_ MAC  --- 2 message 32 [0 ffffffff 3 800] ------- [3:255 -1:255 32 0] 
r 0.737637815 _4_ MAC  --- 2 message 32 [0 ffffffff 3 800] ------- [3:255 -1:255 32 0] 
r 0.737638049 _0_ MAC  --- 2 message 32 [0 ffffffff 3 800] ------- [3:255 -1:255 32 0] 
r 0.737662527 _9_ RTR  --- 2 message 32 [0 ffffffff 3 800] ------- [3:255 -1:255 32 0] 
r 0.737662560 _5_ RTR  --- 2 message 32 [0 ffffffff 3 800] ------- [3:255 -1:255 32 0] 
r 0.737662644 _1_ RTR  --- 2 message 32 [0 ffffffff 3 800] ------- [3:255 -1:255 32 0] 
r 0.737662649 _7_ RTR  --- 2 message 32 [0 ffffffff 3 800] ------- [3:255 -1:255 32 0] 
r 0.737662674 _2_ RTR  --- 2 message 32 [0 ffffffff 3 800] ------- [3:255 -1:255 32 0] 
r 0.737662678 _6_ RTR  --- 2 message 32 [0 ffffffff 3 800] ------- [3:255 -1:255 32 0] 
r 0.737662717 _8_ RTR  --- 2 message 32 [0 ffffffff 3 800] ------- [3:255 -1:255 32 0] 
r 0.737662815 _4_ RTR  --- 2 message 32 [0 ffffffff 3 800] ------- [3:255 -1:255 32 0] 
r 0.737663049 _0_ RTR  --- 2 message 32 [0 ffffffff 3 800] ------- [3:255 -1:255 32 0] 
s 1.000000000 _1_ AGT  --- 3 cbr 1000 [0 0 0 0] ------- [1:0 0:0 32 0] [0] 0 0
r 1.000000000 _1_ RTR  --- 3 cbr 1000 [0 0 0 0] ------- [1:0 0:0 32 0] [0] 0 0
s 1.000000000 _1_ AGT  --- 4 cbr 23 [0 0 0 0] ------- [1:0 0:0 32 0] [1] 0 0
r 1.000000000 _1_ RTR  --- 4 cbr 23 [0 0 0 0] ------- [1:0 0:0 32 0] [1] 0 0
s 1.031968750 _1_ AGT  --- 5 cbr 1000 [0 0 0 0] ------- [1:0 0:0 32 0] [2] 0 0
r 1.031968750 _1_ RTR  --- 5 cbr 1000 [0 0 0 0] ------- [1:0 0:0 32 0] [2] 0 0
s 1.031968750 _1_ AGT  --- 6 cbr 23 [0 0 0 0] ------- [1:0 0:0 32 0] [3] 0 0
r 1.031968750 _1_ RTR  --- 6 cbr 23 [0 0 0 0] ------- [1:0 0:0 32 0] [3] 0 0
s 1.063937500 _1_ AGT  --- 7 cbr 1000 [0 0 0 0] ------- [1:0 0:0 32 0] [4] 0 0
r 1.063937500 _1_ RTR  --- 7 cbr 1000 [0 0 0 0] ------- [1:0 0:0 32 0] [4] 0 0
s 1.063937500 _1_ AGT  --- 8 cbr 23 [0 0 0 0] ------- [1:0 0:0 32 0] [5] 0 0
r 1.063937500 _1_ RTR  --- 8 cbr 23 [0 0 0 0] ------- [1:0 0:0 32 0] [5] 0 0
D 1.063937500 _1_ RTR  IFQ 3 cbr 1020 [0 0 0 0] ------- [1:0 0:0 32 0] [0] 0 0
s 1.095906250 _1_ AGT  --- 9 cbr 1000 [0 0 0 0] ------- [1:0 0:0 32 0] [6] 0 0
r 1.095906250 _1_ RTR  --- 9 cbr 1000 [0 0 0 0] ------- [1:0 0:0 32 0] [6] 0 0
D 1.095906250 _1_ RTR  IFQ 4 cbr 43 [0 0 0 0] ------- [1:0 0:0 32 0] [1] 0 0
s 1.095906250 _1_ AGT  --- 10 cbr 23 [0 0 0 0] ------- [1:0 0:0 32 0] [7] 0 0
r 1.095906250 _1_ RTR  --- 10 cbr 23 [0 0 0 0] ------- [1:0 0:0 32 0] [7] 0 0
D 1.095906250 _1_ RTR  IFQ 5 cbr 1020 [0 0 0 0] ------- [1:0 0:0 32 0] [2] 0 0
s 1.127875000 _1_ AGT  --- 11 cbr 1000 [0 0 0 0] ------- [1:0 0:0 32 0] [8] 0 0
r 1.127875000 _1_ RTR  --- 11 cbr 1000 [0 0 0 0] ------- [1:0 0:0 32 0] [8] 0 0
D 1.127875000 _1_ RTR  IFQ 6 cbr 43 [0 0 0 0] ------- [1:0 0:0 32 0] [3] 0 0
s 1.127875000 _1_ AGT  --- 12 cbr 23 [0 0 0 0] ------- [1:0 0:0 32 0] [9] 0 0
r 1.127875000 _1_ RTR  --- 12 cbr 23 [0 0 0 0] ------- [1:0 0:0 32 0] [9] 0 0
D 1.127875000 _1_ RTR  IFQ 7 cbr 1020 [0 0 0 0] ------- [1:0 0:0 32 0] [4] 0 0
s 1.159843750 _1_ AGT  --- 13 cbr 1000 [0 0 0 0] ------- [1:0 0:0 32 0] [10] 0 0
r 1.159843750 _1_ RTR  --- 13 cbr 1000 [0 0 0 0] ------- [1:0 0:0 32 0] [10] 0 0
D 1.159843750 _1_ RTR  IFQ 8 cbr 43 [0 0 0 0] ------- [1:0 0:0 32 0] [5] 0 0
s 1.159843750 _1_ AGT  --- 14 cbr 23 [0 0 0 0] ------- [1:0 0:0 32 0] [11] 0 0
r 1.159843750 _1_ RTR  --- 14 cbr 23 [0 0 0 0] ------- [1:0 0:0 32 0] [11] 0 0
D 1.159843750 _1_ RTR  IFQ 9 cbr 1020 [0 0 0 0] ------- [1:0 0:0 32 0] [6] 0 0
s 1.191812500 _1_ AGT  --- 15 cbr 1000 [0 0 0 0] ------- [1:0 0:0 32 0] [12] 0 0
r 1.191812500 _1_ RTR  --- 15 cbr 1000 [0 0 0 0] ------- [1:0 0:0 32 0] [12] 0 0
D 1.191812500 _1_ RTR  IFQ 10 cbr 43 [0 0 0 0] ------- [1:0 0:0 32 0] [7] 0 0
s 1.191812500 _1_ AGT  --- 16 cbr 23 [0 0 0 0] ------- [1:0 0:0 32 0] [13] 0 0
r 1.191812500 _1_ RTR  --- 16 cbr 23 [0 0 0 0] ------- [1:0 0:0 32 0] [13] 0 0
D 1.191812500 _1_ RTR  IFQ 11 cbr 1020 [0 0 0 0] ------- [1:0 0:0 32 0] [8] 0 0
s 1.212876299 _9_ RTR  --- 17 message 32 [0 0 0 0] ------- [9:255 -1:255 32 0] 
s 1.213291299 _9_ MAC  --- 17 message 90 [0 ffffffff 9 800] ------- [9:255 -1:255 32 0] 
r 1.214011322 _3_ MAC  --- 17 message 32 [0 ffffffff 9 800] ------- [9:255 -1:255 32 0] 
r 1.214011378 _5_ MAC  --- 17 message 32 [0 ffffffff 9 800] ------- [9:255 -1:255 32 0] 
r 1.214011450 _6_ MAC  --- 17 message 32 [0 ffffffff 9 800] ------- [9:255 -1:255 32 0] 
r 1.214011462 _1_ MAC  --- 17 message 32 [0 ffffffff 9 800] ------- [9:255 -1:255 32 0] 
r 1.214011468 _7_ MAC  --- 17 message 32 [0 ffffffff 9 800] ------- [9:255 -1:255 32 0] 
r 1.214011489 _8_ MAC  --- 17 message 32 [0 ffffffff 9 800] ------- [9:255 -1:255 32 0] 
r 1.214011492 _2_ MAC  --- 17 message 32 [0 ffffffff 9 800] ------- [9:255 -1:255 32 0] 
r 1.214011633 _4_ MAC  --- 17 message 32 [0 ffffffff 9 800] ------- [9:255 -1:255 32 0] 
r 1.214011865 _0_ MAC  --- 17 message 32 [0 ffffffff 9 800] ------- [9:255 -1:255 32 0] 
r 1.214036322 _3_ RTR  --- 17 message 32 [0 ffffffff 9 800] ------- [9:255 -1:255 32 0] 
r 1.214036378 _5_ RTR  --- 17 message 32 [0 ffffffff 9 800] ------- [9:255 -1:255 32 0] 
r 1.214036450 _6_ RTR  --- 17 message 32 [0 ffffffff 9 800] ------- [9:255 -1:255 32 0] 
r 1.214036462 _1_ RTR  --- 17 message 32 [0 ffffffff 9 800] ------- [9:255 -1:255 32 0] 
r 1.214036468 _7_ RTR  --- 17 message 32 [0 ffffffff 9 800] ------- [9:255 -1:255 32 0] 
r 1.214036489 _8_ RTR  --- 17 message 32 [0 ffffffff 9 800] ------- [9:255 -1:255 32 0] 
r 1.214036492 _2_ RTR  --- 17 message 32 [0 ffffffff 9 800] ------- [9:255 -1:255 32 0] 
r 1.214036633 _4_ RTR  --- 17 message 32 [0 ffffffff 9 800] ------- [9:255 -1:255 32 0] 
r 1.214036865 _0_ RTR  --- 17 message 32 [0 ffffffff 9 800] ------- [9:255 -1:255 32 0] 
s 1.223781250 _1_ AGT  --- 18 cbr 1000 [0 0 0 0] ------- [1:0 0:0 32 0] [14] 0 0
r 1.223781250 _1_ RTR  --- 18 cbr 1000 [0 0 0 0] ------- [1:0 0:0 32 0] [14] 0 0
D 1.223781250 _1_ RTR  IFQ 12 cbr 43 [0 0 0 0] ------- [1:0 0:0 32 0] [9] 0 0
s 1.223781250 _1_ AGT  --- 19 cbr 23 [0 0 0 0] ------- [1:0 0:0 32 0] [15] 0 0
r 1.223781250 _1_ RTR  --- 19 cbr 23 [0 0 0 0] ------- [1:0 0:0 32 0] [15] 0 0
D 1.223781250 _1_ RTR  IFQ 13 cbr 1020 [0 0 0 0] ------- [1:0 0:0 32 0] [10] 0 0
s 1.255750000 _1_ AGT  --- 20 cbr 1000 [0 0 0 0] ------- [1:0 0:0 32 0] [16] 0 0
r 1.255750000 _1_ RTR  --- 20 cbr 1000 [0 0 0 0] ------- [1:0 0:0 32 0] [16] 0 0
D 1.255750000 _1_ RTR  IFQ 14 cbr 43 [0 0 0 0] ------- [1:0 0:0 32 0] [11] 0 0
s 1.255750000 _1_ AGT  --- 21 cbr 23 [0 0 0 0] ------- [1:0 0:0 32 0] [17] 0 0
r 1.255750000 _1_ RTR  --- 21 cbr 23 [0 0 0 0] ------- [1:0 0:0 32 0] [17] 0 0
D 1.255750000 _1_ RTR  IFQ 15 cbr 1020 [0 0 0 0] ------- [1:0 0:0 32 0] [12] 0 0
s 1.287718750 _1_ AGT  --- 22 cbr 1000 [0 0 0 0] ------- [1:0 0:0 32 0] [18] 0 0
r 1.287718750 _1_ RTR  --- 22 cbr 1000 [0 0 0 0] ------- [1:0 0:0 32 0] [18] 0 0
D 1.287718750 _1_ RTR  IFQ 16 cbr 43 [0 0 0 0] ------- [1:0 0:0 32 0] [13] 0 0
s 1.287718750 _1_ AGT  --- 23 cbr 23 [0 0 0 0] ------- [1:0 0:0 32 0] [19] 0 0
r 1.287718750 _1_ RTR  --- 23 cbr 23 [0 0 0 0] ------- [1:0 0:0 32 0] [19] 0 0
D 1.287718750 _1_ RTR  IFQ 18 cbr 1020 [0 0 0 0] ------- [1:0 0:0 32 0] [14] 0 0
s 1.319687500 _1_ AGT  --- 24 cbr 1000 [0 0 0 0] ------- [1:0 0:0 32 0] [20] 0 0
r 1.319687500 _1_ RTR  --- 24 cbr 1000 [0 0 0 0] ------- [1:0 0:0 32 0] [20] 0 0
D 1.319687500 _1_ RTR  IFQ 19 cbr 43 [0 0 0 0] ------- [1:0 0:0 32 0] [15] 0 0
s 1.319687500 _1_ AGT  --- 25 cbr 23 [0 0 0 0] ------- [1:0 0:0 32 0] [21] 0 0
r 1.319687500 _1_ RTR  --- 25 cbr 23 [0 0 0 0] ------- [1:0 0:0 32 0] [21] 0 0
D 1.319687500 _1_ RTR  IFQ 20 cbr 1020 [0 0 0 0] ------- [1:0 0:0 32 0] [16] 0 0
s 1.351656250 _1_ AGT  --- 26 cbr 1000 [0 0 0 0] ------- [1:0 0:0 32 0] [22] 0 0
r 1.351656250 _1_ RTR  --- 26 cbr 1000 [0 0 0 0] ------- [1:0 0:0 32 0] [22] 0 0
D 1.351656250 _1_ RTR  IFQ 21 cbr 43 [0 0 0 0] ------- [1:0 0:0 32 0] [17] 0 0
s 1.351656250 _1_ AGT  --- 27 cbr 23 [0 0 0 0] ------- [1:0 0:0 32 0] [23] 0 0
r 1.351656250 _1_ RTR  --- 27 cbr 23 [0 0 0 0] ------- [1:0 0:0 32 0] [23] 0 0
D 1.351656250 _1_ RTR  IFQ 22 cbr 1020 [0 0 0 0] ------- [1:0 0:0 32 0] [18] 0 0
s 1.383625000 _1_ AGT  --- 28 cbr 1000 [0 0 0 0] ------- [1:0 0:0 32 0] [24] 0 0
r 1.383625000 _1_ RTR  --- 28 cbr 1000 [0 0 0 0] ------- [1:0 0:0 32 0] [24] 0 0
D 1.383625000 _1_ RTR  IFQ 23 cbr 43 [0 0 0 0] ------- [1:0 0:0 32 0] [19] 0 0
s 1.383625000 _1_ AGT  --- 29 cbr 23 [0 0 0 0] ------- [1:0 0:0 32 0] [25] 0 0
r 1.383625000 _1_ RTR  --- 29 cbr 23 [0 0 0 0] ------- [1:0 0:0 32 0] [25] 0 0
D 1.383625000 _1_ RTR  IFQ 24 cbr 1020 [0 0 0 0] ------- [1:0 0:0 32 0] [20] 0 0
s 1.415593750 _1_ AGT  --- 30 cbr 1000 [0 0 0 0] ------- [1:0 0:0 32 0] [26] 0 0
r 1.415593750 _1_ RTR  --- 30 cbr 1000 [0 0 0 0] ------- [1:0 0:0 32 0] [26] 0 0
D 1.415593750 _1_ RTR  IFQ 25 cbr 43 [0 0 0 0] ------- [1:0 0:0 32 0] [21] 0 0
s 1.415593750 _1_ AGT  --- 31 cbr 23 [0 0 0 0] ------- [1:0 0:0 32 0] [27] 0 0
r 1.415593750 _1_ RTR  --- 31 cbr 23 [0 0 0 0] ------- [1:0 0:0 32 0] [27] 0 0
D 1.415593750 _1_ RTR  IFQ 26 cbr 1020 [0 0 0 0] ------- [1:0 0:0 32 0] [22] 0 0
s 1.447562500 _1_ AGT  --- 32 cbr 1000 [0 0 0 0] ------- [1:0 0:0 32 0] [28] 0 0
r 1.447562500 _1_ RTR  --- 32 cbr 1000 [0 0 0 0] ------- [1:0 0:0 32 0] [28] 0 0
D 1.447562500 _1_ RTR  IFQ 27 cbr 43 [0 0 0 0] ------- [1:0 0:0 32 0] [23] 0 0
s 1.447562500 _1_ AGT  --- 33 cbr 23 [0 0 0 0] ------- [1:0 0:0 32 0] [29] 0 0
r 1.447562500 _1_ RTR  --- 33 cbr 23 [0 0 0 0] ------- [1:0 0:0 32 0] [29] 0 0
D 1.447562500 _1_ RTR  IFQ 28 cbr 1020 [0 0 0 0] ------- [1:0 0:0 32 0] [24] 0 0
s 1.479531250 _1_ AGT  --- 34 cbr 1000 [0 0 0 0] ------- [1:0 0:0 32 0] [30] 0 0
r 1.479531250 _1_ RTR  --- 34 cbr 1000 [0 0 0 0] ------- [1:0 0:0 32 0] [30] 0 0
D 1.479531250 _1_ RTR  IFQ 29 cbr 43 [0 0 0 0] ------- [1:0 0:0 32 0] [25] 0 0
s 1.479531250 _1_ AGT  --- 35 cbr 23 [0 0 0 0] ------- [1:0 0:0 32 0] [31] 0 0
r 1.479531250 _1_ RTR  --- 35 cbr 23 [0 0 0 0] ------- [1:0 0:0 32 0] [31] 0 0
D 1.479531250 _1_ RTR  IFQ 30 cbr 1020 [0 0 0 0] ------- [1:0 0:0 32 0] [26] 0 0
s 1.511500000 _1_ AGT  --- 36 cbr 1000 [0 0 0 0] ------- [1:0 0:0 32 0] [32] 0 0
r 1.511500000 _1_ RTR  --- 36 cbr 1000 [0 0 0 0] ------- [1:0 0:0 32 0] [32] 0 0
D 1.511500000 _1_ RTR  IFQ 31 cbr 43 [0 0 0 0] ------- [1:0 0:0 32 0] [27] 0 0
s 1.511500000 _1_ AGT  --- 37 cbr 23 [0 0 0 0] ------- [1:0 0:0 32 0] [33] 0 0
r 1.511500000 _1_ RTR  --- 37 cbr 23 [0 0 0 0] ------- [1:0 0:0 32 0] [33] 0 0
D 1.511500000 _1_ RTR  IFQ 32 cbr 1020 [0 0 0 0] ------- [1:0 0:0 32 0] [28] 0 0
s 1.543468750 _1_ AGT  --- 38 cbr 1000 [0 0 0 0] ------- [1:0 0:0 32 0] [34] 0 0
r 1.543468750 _1_ RTR  --- 38 cbr 1000 [0 0 0 0] ------- [1:0 0:0 32 0] [34] 0 0
D 1.543468750 _1_ RTR  IFQ 33 cbr 43 [0 0 0 0] ------- [1:0 0:0 32 0] [29] 0 0
s 1.543468750 _1_ AGT  --- 39 cbr 23 [0 0 0 0] ------- [1:0 0:0 32 0] [35] 0 0
r 1.543468750 _1_ RTR  --- 39 cbr 23 [0 0 0 0] ------- [1:0 0:0 32 0] [35] 0 0
D 1.543468750 _1_ RTR  IFQ 34 cbr 1020 [0 0 0 0] ------- [1:0 0:0 32 0] [30] 0 0
s 1.575437500 _1_ AGT  --- 40 cbr 1000 [0 0 0 0] ------- [1:0 0:0 32 0] [36] 0 0
r 1.575437500 _1_ RTR  --- 40 cbr 1000 [0 0 0 0] ------- [1:0 0:0 32 0] [36] 0 0
D 1.575437500 _1_ RTR  IFQ 35 cbr 43 [0 0 0 0] ------- [1:0 0:0 32 0] [31] 0 0
s 1.575437500 _1_ AGT  --- 41 cbr 23 [0 0 0 0] ------- [1:0 0:0 32 0] [37] 0 0
r 1.575437500 _1_ RTR  --- 41 cbr 23 [0 0 0 0] ------- [1:0 0:0 32 0] [37] 0 0
D 1.575437500 _1_ RTR  IFQ 36 cbr 1020 [0 0 0 0] ------- [1:0 0:0 32 0] [32] 0 0
s 1.586189159 _8_ RTR  --- 42 message 32 [0 0 0 0] ------- [8:255 -1:255 32 0] 
s 1.586784159 _8_ MAC  --- 42 message 90 [0 ffffffff 8 800] ------- [8:255 -1:255 32 0] 
r 1.587504204 _6_ MAC  --- 42 message 32 [0 ffffffff 8 800] ------- [8:255 -1:255 32 0] 
r 1.587504349 _9_ MAC  --- 42 message 32 [0 ffffffff 8 800] ------- [8:255 -1:255 32 0] 
r 1.587504371 _3_ MAC  --- 42 message 32 [0 ffffffff 8 800] ------- [8:255 -1:255 32 0] 
r 1.587504425 _5_ MAC  --- 42 message 32 [0 ffffffff 8 800] ------- [8:255 -1:255 32 0] 
r 1.587504507 _1_ MAC  --- 42 message 32 [0 ffffffff 8 800] ------- [8:255 -1:255 32 0] 
r 1.587504512 _7_ MAC  --- 42 message 32 [0 ffffffff 8 800] ------- [8:255 -1:255 32 0] 
r 1.587504536 _2_ MAC  --- 42 message 32 [0 ffffffff 8 800] ------- [8:255 -1:255 32 0] 
r 1.587504675 _4_ MAC  --- 42 message 32 [0 ffffffff 8 800] ------- [8:255 -1:255 32 0] 
r 1.587504915 _0_ MAC  --- 42 message 32 [0 ffffffff 8 800] ------- [8:255 -1:255 32 0] 
r 1.587529204 _6_ RTR  --- 42 message 32 [0 ffffffff 8 800] ------- [8:255 -1:255 32 0] 
r 1.587529349 _9_ RTR  --- 42 message 32 [0 ffffffff 8 800] ------- [8:255 -1:255 32 0] 
r 1.587529371 _3_ RTR  --- 42 message 32 [0 ffffffff 8 800] ------- [8:255 -1:255 32 0] 
r 1.587529425 _5_ RTR  --- 42 message 32 [0 ffffffff 8 800] ------- [8:255 -1:255 32 0] 
r 1.587529507 _1_ RTR  --- 42 message 32 [0 ffffffff 8 800] ------- [8:255 -1:255 32 0] 
r 1.587529512 _7_ RTR  --- 42 message 32 [0 ffffffff 8 800] ------- [8:255 -1:255 32 0] 
r 1.587529536 _2_ RTR  --- 42 message 32 [0 ffffffff 8 800] ------- [8:255 -1:255 32 0] 
r 1.587529675 _4_ RTR  --- 42 message 32 [0 ffffffff 8 800] ------- [8:255 -1:255 32 0] 
r 1.587529915 _0_ RTR  --- 42 message 32 [0 ffffffff 8 800] ------- [8:255 -1:255 32 0] 
s 1.607406250 _1_ AGT  --- 43 cbr 1000 [0 0 0 0] ------- [1:0 0:0 32 0] [38] 0 0
r 1.607406250 _1_ RTR  --- 43 cbr 1000 [0 0 0 0] ------- [1:0 0:0 32 0] [38] 0 0
D 1.607406250 _1_ RTR  IFQ 37 cbr 43 [0 0 0 0] ------- [1:0 0:0 32 0] [33] 0 0
s 1.607406250 _1_ AGT  --- 44 cbr 23 [0 0 0 0] ------- [1:0 0:0 32 0] [39] 0 0
r 1.607406250 _1_ RTR  --- 44 cbr 23 [0 0 0 0] ------- [1:0 0:0 32 0] [39] 0 0
D 1.607406250 _1_ RTR  IFQ 38 cbr 1020 [0 0 0 0] ------- [1:0 0:0 32 0] [34] 0 0
s 1.639375000 _1_ AGT  --- 45 cbr 1000 [0 0 0 0] ------- [1:0 0:0 32 0] [40] 0 0
r 1.639375000 _1_ RTR  --- 45 cbr 1000 [0 0 0 0] ------- [1:0 0:0 32 0] [40] 0 0
D 1.639375000 _1_ RTR  IFQ 39 cbr 43 [0 0 0 0] ------- [1:0 0:0 32 0] [35] 0 0
s 1.639375000 _1_ AGT  --- 46 cbr 23 [0 0 0 0] ------- [1:0 0:0 32 0] [41] 0 0
r 1.639375000 _1_ RTR  --- 46 cbr 23 [0 0 0 0] ------- [1:0 0:0 32 0] [41] 0 0
D 1.639375000 _1_ RTR  IFQ 40 cbr 1020 [0 0 0 0] ------- [1:0 0:0 32 0] [36] 0 0
s 1.671343750 _1_ AGT  --- 47 cbr 1000 [0 0 0 0] ------- [1:0 0:0 32 0] [42] 0 0
r 1.671343750 _1_ RTR  --- 47 cbr 1000 [0 0 0 0] ------- [1:0 0:0 32 0] [42] 0 0
D 1.671343750 _1_ RTR  IFQ 41 cbr 43 [0 0 0 0] ------- [1:0 0:0 32 0] [37] 0 0
s 1.671343750 _1_ AGT  --- 48 cbr 23 [0 0 0 0] ------- [1:0 0:0 32 0] [43] 0 0
r 1.671343750 _1_ RTR  --- 48 cbr 23 [0 0 0 0] ------- [1:0 0:0 32 0] [43] 0 0
D 1.671343750 _1_ RTR  IFQ 43 cbr 1020 [0 0 0 0] ------- [1:0 0:0 32 0] [38] 0 0
s 1.703312500 _1_ AGT  --- 50 cbr 1000 [0 0 0 0] ------- [1:0 0:0 32 0] [44] 0 0
r 1.703312500 _1_ RTR  --- 50 cbr 1000 [0 0 0 0] ------- [1:0 0:0 32 0] [44] 0 0
D 1.703312500 _1_ RTR  IFQ 44 cbr 43 [0 0 0 0] ------- [1:0 0:0 32 0] [39] 0 0
s 1.703312500 _1_ AGT  --- 51 cbr 23 [0 0 0 0] ------- [1:0 0:0 32 0] [45] 0 0
r 1.703312500 _1_ RTR  --- 51 cbr 23 [0 0 0 0] ------- [1:0 0:0 32 0] [45] 0 0
D 1.703312500 _1_ RTR  IFQ 45 cbr 1020 [0 0 0 0] ------- [1:0 0:0 32 0] [40] 0 0
s 1.710978784 _0_ RTR  --- 49 message 32 [0 0 0 0] ------- [0:255 -1:255 32 0] 
s 1.711573784 _0_ MAC  --- 49 message 90 [0 ffffffff 0 800] ------- [0:255 -1:255 32 0] 
r 1.712294082 _4_ MAC  --- 49 message 32 [0 ffffffff 0 800] ------- [0:255 -1:255 32 0] 
r 1.712294181 _2_ MAC  --- 49 message 32 [0 ffffffff 0 800] ------- [0:255 -1:255 32 0] 
r 1.712294201 _7_ MAC  --- 49 message 32 [0 ffffffff 0 800] ------- [0:255 -1:255 32 0] 
r 1.712294205 _1_ MAC  --- 49 message 32 [0 ffffffff 0 800] ------- [0:255 -1:255 32 0] 
r 1.712294278 _5_ MAC  --- 49 message 32 [0 ffffffff 0 800] ------- [0:255 -1:255 32 0] 
r 1.712294328 _3_ MAC  --- 49 message 32 [0 ffffffff 0 800] ------- [0:255 -1:255 32 0] 
r 1.712294350 _9_ MAC  --- 49 message 32 [0 ffffffff 0 800] ------- [0:255 -1:255 32 0] 
r 1.712294499 _6_ MAC  --- 49 message 32 [0 ffffffff 0 800] ------- [0:255 -1:255 32 0] 
r 1.712294540 _8_ MAC  --- 49 message 32 [0 ffffffff 0 800] ------- [0:255 -1:255 32 0] 
r 1.712319082 _4_ RTR  --- 49 message 32 [0 ffffffff 0 800] ------- [0:255 -1:255 32 0] 
r 1.712319181 _2_ RTR  --- 49 message 32 [0 ffffffff 0 800] ------- [0:255 -1:255 32 0] 
r 1.712319201 _7_ RTR  --- 49 message 32 [0 ffffffff 0 800] ------- [0:255 -1:255 32 0] 
r 1.712319205 _1_ RTR  --- 49 message 32 [0 ffffffff 0 800] ------- [0:255 -1:255 32 0] 
s 1.712319205 _1_ RTR  --- 46 cbr 63 [0 0 0 0] ------- [1:0 0:0 32 0] [41] 0 0
s 1.712319205 _1_ RTR  --- 47 cbr 1040 [0 0 0 0] ------- [1:0 0:0 32 0] [42] 0 0
D 1.712319205 _1_ IFQ  ARP 46 cbr 63 [0 0 1 800] ------- [1:0 0:0 32 0] [41] 0 0
s 1.712319205 _1_ RTR  --- 48 cbr 63 [0 0 0 0] ------- [1:0 0:0 32 0] [43] 0 0
D 1.712319205 _1_ IFQ  ARP 47 cbr 1040 [0 0 1 800] ------- [1:0 0:0 32 0] [42] 0 0
s 1.712319205 _1_ RTR  --- 50 cbr 1040 [0 0 0 0] ------- [1:0 0:0 32 0] [44] 0 0
D 1.712319205 _1_ RTR  CBK 48 cbr 63 [0 0 1 800] ------- [1:0 0:0 32 0] [43] 0 0
D 1.712319205 _1_ RTR  CBK 50 cbr 1040 [0 0 1 800] ------- [1:0 0:0 32 0] [44] 0 0
s 1.712319205 _1_ RTR  --- 51 cbr 63 [0 0 0 0] ------- [1:0 0:0 32 0] [45] 0 0
r 1.712319278 _5_ RTR  --- 49 message 32 [0 ffffffff 0 800] ------- [0:255 -1:255 32 0] 
r 1.712319328 _3_ RTR  --- 49 message 32 [0 ffffffff 0 800] ------- [0:255 -1:255 32 0] 
r 1.712319350 _9_ RTR  --- 49 message 32 [0 ffffffff 0 800] ------- [0:255 -1:255 32 0] 
r 1.712319499 _6_ RTR  --- 49 message 32 [0 ffffffff 0 800] ------- [0:255 -1:255 32 0] 
r 1.712319540 _8_ RTR  --- 49 message 32 [0 ffffffff 0 800] ------- [0:255 -1:255 32 0] 
s 1.712514205 _1_ MAC  --- 0 ARP 86 [0 ffffffff 1 806] ------- [REQUEST 1/1 0/0]
r 1.713202211 _7_ MAC  --- 0 ARP 28 [0 ffffffff 1 806] ------- [REQUEST 1/1 0/0]
r 1.713202236 _2_ MAC  --- 0 ARP 28 [0 ffffffff 1 806] ------- [REQUEST 1/1 0/0]
r 1.713202289 _5_ MAC  --- 0 ARP 28 [0 ffffffff 1 806] ------- [REQUEST 1/1 0/0]
r 1.713202345 _3_ MAC  --- 0 ARP 28 [0 ffffffff 1 806] ------- [REQUEST 1/1 0/0]
r 1.713202368 _9_ MAC  --- 0 ARP 28 [0 ffffffff 1 806] ------- [REQUEST 1/1 0/0]
r 1.713202377 _4_ MAC  --- 0 ARP 28 [0 ffffffff 1 806] ------- [REQUEST 1/1 0/0]
r 1.713202518 _6_ MAC  --- 0 ARP 28 [0 ffffffff 1 806] ------- [REQUEST 1/1 0/0]
r 1.713202553 _8_ MAC  --- 0 ARP 28 [0 ffffffff 1 806] ------- [REQUEST 1/1 0/0]
r 1.713202627 _0_ MAC  --- 0 ARP 28 [0 ffffffff 1 806] ------- [REQUEST 1/1 0/0]
s 1.713272627 _0_ MAC  --- 0 RTS 44 [52e 1 0 0] 
r 1.713625048 _1_ MAC  --- 0 RTS 44 [52e 1 0 0] 
s 1.713635048 _1_ MAC  --- 0 CTS 38 [3f4 0 0 0] 
r 1.713939470 _0_ MAC  --- 0 CTS 38 [3f4 0 0 0] 
s 1.713949470 _0_ MAC  --- 0 ARP 86 [13a 1 0 806] ------- [REPLY 0/0 1/1]
r 1.714637892 _1_ MAC  --- 0 ARP 28 [13a 1 0 806] ------- [REPLY 0/0 1/1]
s 1.714647892 _1_ MAC  --- 0 ACK 38 [0 0 0 0] 
r 1.714952313 _0_ MAC  --- 0 ACK 38 [0 0 0 0] 
s 1.715321892 _1_ MAC  --- 0 ARP 86 [0 ffffffff 1 806] ------- [REQUEST 1/1 0/0]
r 1.716009897 _7_ MAC  --- 0 ARP 28 [0 ffffffff 1 806] ------- [REQUEST 1/1 0/0]
r 1.716009922 _2_ MAC  --- 0 ARP 28 [0 ffffffff 1 806] ------- [REQUEST 1/1 0/0]
r 1.716009976 _5_ MAC  --- 0 ARP 28 [0 ffffffff 1 806] ------- [REQUEST 1/1 0/0]
r 1.716010031 _3_ MAC  --- 0 ARP 28 [0 ffffffff 1 806] ------- [REQUEST 1/1 0/0]
r 1.716010054 _9_ MAC  --- 0 ARP 28 [0 ffffffff 1 806] ------- [REQUEST 1/1 0/0]
r 1.716010063 _4_ MAC  --- 0 ARP 28 [0 ffffffff 1 806] ------- [REQUEST 1/1 0/0]
r 1.716010204 _6_ MAC  --- 0 ARP 28 [0 ffffffff 1 806] ------- [REQUEST 1/1 0/0]
r 1.716010239 _8_ MAC  --- 0 ARP 28 [0 ffffffff 1 806] ------- [REQUEST 1/1 0/0]
r 1.716010313 _0_ MAC  --- 0 ARP 28 [0 ffffffff 1 806] ------- [REQUEST 1/1 0/0]
s 1.716439892 _1_ MAC  --- 0 ARP 86 [0 ffffffff 1 806] ------- [REQUEST 1/1 0/0]
r 1.717127897 _7_ MAC  --- 0 ARP 28 [0 ffffffff 1 806] ------- [REQUEST 1/1 0/0]
r 1.717127922 _2_ MAC  --- 0 ARP 28 [0 ffffffff 1 806] ------- [REQUEST 1/1 0/0]
r 1.717127976 _5_ MAC  --- 0 ARP 28 [0 ffffffff 1 806] ------- [REQUEST 1/1 0/0]
r 1.717128031 _3_ MAC  --- 0 ARP 28 [0 ffffffff 1 806] ------- [REQUEST 1/1 0/0]
r 1.717128054 _9_ MAC  --- 0 ARP 28 [0 ffffffff 1 806] ------- [REQUEST 1/1 0/0]
r 1.717128063 _4_ MAC  --- 0 ARP 28 [0 ffffffff 1 806] ------- [REQUEST 1/1 0/0]
r 1.717128204 _6_ MAC  --- 0 ARP 28 [0 ffffffff 1 806] ------- [REQUEST 1/1 0/0]
r 1.717128239 _8_ MAC  --- 0 ARP 28 [0 ffffffff 1 806] ------- [REQUEST 1/1 0/0]
r 1.717128313 _0_ MAC  --- 0 ARP 28 [0 ffffffff 1 806] ------- [REQUEST 1/1 0/0]
s 1.717278313 _0_ MAC  --- 0 RTS 44 [52e 1 0 0] 
r 1.717630735 _1_ MAC  --- 0 RTS 44 [52e 1 0 0] 
s 1.717640735 _1_ MAC  --- 0 CTS 38 [3f4 0 0 0] 
r 1.717945156 _0_ MAC  --- 0 CTS 38 [3f4 0 0 0] 
s 1.717955156 _0_ MAC  --- 0 ARP 86 [13a 1 0 806] ------- [REPLY 0/0 1/1]
r 1.718643578 _1_ MAC  --- 0 ARP 28 [13a 1 0 806] ------- [REPLY 0/0 1/1]
s 1.718653578 _1_ MAC  --- 0 ACK 38 [0 0 0 0] 
r 1.718958000 _0_ MAC  --- 0 ACK 38 [0 0 0 0] 
s 1.719047578 _1_ MAC  --- 0 ARP 86 [0 ffffffff 1 806] ------- [REQUEST 1/1 0/0]
r 1.719735584 _7_ MAC  --- 0 ARP 28 [0 ffffffff 1 806] ------- [REQUEST 1/1 0/0]
r 1.719735608 _2_ MAC  --- 0 ARP 28 [0 ffffffff 1 806] ------- [REQUEST 1/1 0/0]
r 1.719735662 _5_ MAC  --- 0 ARP 28 [0 ffffffff 1 806] ------- [REQUEST 1/1 0/0]
r 1.719735718 _3_ MAC  --- 0 ARP 28 [0 ffffffff 1 806] ------- [REQUEST 1/1 0/0]
r 1.719735741 _9_ MAC  --- 0 ARP 28 [0 ffffffff 1 806] ------- [REQUEST 1/1 0/0]
r 1.719735749 _4_ MAC  --- 0 ARP 28 [0 ffffffff 1 806] ------- [REQUEST 1/1 0/0]
r 1.719735890 _6_ MAC  --- 0 ARP 28 [0 ffffffff 1 806] ------- [REQUEST 1/1 0/0]
r 1.719735925 _8_ MAC  --- 0 ARP 28 [0 ffffffff 1 806] ------- [REQUEST 1/1 0/0]
r 1.719736000 _0_ MAC  --- 0 ARP 28 [0 ffffffff 1 806] ------- [REQUEST 1/1 0/0]
s 1.720106000 _0_ MAC  --- 0 RTS 44 [52e 1 0 0] 
r 1.720458421 _1_ MAC  --- 0 RTS 44 [52e 1 0 0] 
s 1.720468421 _1_ MAC  --- 0 CTS 38 [3f4 0 0 0] 
r 1.720772843 _0_ MAC  --- 0 CTS 38 [3f4 0 0 0] 
s 1.720782843 _0_ MAC  --- 0 ARP 86 [13a 1 0 806] ------- [REPLY 0/0 1/1]
r 1.721471264 _1_ MAC  --- 0 ARP 28 [13a 1 0 806] ------- [REPLY 0/0 1/1]
s 1.721481264 _1_ MAC  --- 0 ACK 38 [0 0 0 0] 
r 1.721785686 _0_ MAC  --- 0 ACK 38 [0 0 0 0] 
s 1.721915686 _0_ MAC  --- 0 RTS 44 [52e 1 0 0] 
r 1.722268107 _1_ MAC  --- 0 RTS 44 [52e 1 0 0] 
s 1.722278107 _1_ MAC  --- 0 CTS 38 [3f4 0 0 0] 
r 1.722582529 _0_ MAC  --- 0 CTS 38 [3f4 0 0 0] 
s 1.722592529 _0_ MAC  --- 0 ARP 86 [13a 1 0 806] ------- [REPLY 0/0 1/1]
r 1.723280951 _1_ MAC  --- 0 ARP 28 [13a 1 0 806] ------- [REPLY 0/0 1/1]
s 1.723290951 _1_ MAC  --- 0 ACK 38 [0 0 0 0] 
r 1.723595372 _0_ MAC  --- 0 ACK 38 [0 0 0 0] 
s 1.723704951 _1_ MAC  --- 0 RTS 44 [646 0 1 0] 
r 1.724057372 _0_ MAC  --- 0 RTS 44 [646 0 1 0] 
s 1.724067372 _0_ MAC  --- 0 CTS 38 [50c 1 0 0] 
r 1.724371794 _1_ MAC  --- 0 CTS 38 [50c 1 0 0] 
s 1.724381794 _1_ MAC  --- 51 cbr 121 [13a 0 1 800] ------- [1:0 0:0 32 0] [45] 0 0
r 1.725350215 _0_ MAC  --- 51 cbr 63 [13a 0 1 800] ------- [1:0 0:0 32 0] [45] 1 0
s 1.725360215 _0_ MAC  --- 0 ACK 38 [0 1 0 0] 
r 1.725375215 _0_ AGT  --- 51 cbr 63 [13a 0 1 800] ------- [1:0 0:0 32 0] [45] 1 0
r 1.725664637 _1_ MAC  --- 0 ACK 38 [0 1 0 0] 
s 1.735281250 _1_ AGT  --- 52 cbr 1000 [0 0 0 0] ------- [1:0 0:0 32 0] [46] 0 0
r 1.735281250 _1_ RTR  --- 52 cbr 1000 [0 0 0 0] ------- [1:0 0:0 32 0] [46] 0 0
s 1.735281250 _1_ RTR  --- 52 cbr 1020 [0 0 0 0] ------- [1:0 0:0 32 0] [46] 0 0
s 1.735281250 _1_ AGT  --- 53 cbr 23 [0 0 0 0] ------- [1:0 0:0 32 0] [47] 0 0
r 1.735281250 _1_ RTR  --- 53 cbr 23 [0 0 0 0] ------- [1:0 0:0 32 0] [47] 0 0
s 1.735281250 _1_ RTR  --- 53 cbr 43 [0 0 0 0] ------- [1:0 0:0 32 0] [47] 0 0
s 1.735516250 _1_ MAC  --- 0 RTS 44 [242e 0 1 0] 
r 1.735868672 _0_ MAC  --- 0 RTS 44 [242e 0 1 0] 
s 1.735878672 _0_ MAC  --- 0 CTS 38 [22f4 1 0 0] 
r 1.736183093 _1_ MAC  --- 0 CTS 38 [22f4 1 0 0] 
s 1.736193093 _1_ MAC  --- 52 cbr 1078 [13a 0 1 800] ------- [1:0 0:0 32 0] [46] 0 0
r 1.744817515 _0_ MAC  --- 52 cbr 1020 [13a 0 1 800] ------- [1:0 0:0 32 0] [46] 1 0
s 1.744827515 _0_ MAC  --- 0 ACK 38 [0 1 0 0] 
r 1.744842515 _0_ AGT  --- 52 cbr 1020 [13a 0 1 800] ------- [1:0 0:0 32 0] [46] 1 0
r 1.745131936 _1_ MAC  --- 0 ACK 38 [0 1 0 0] 
s 1.745681936 _1_ MAC  --- 0 RTS 44 [5a6 0 1 0] 
r 1.746034358 _0_ MAC  --- 0 RTS 44 [5a6 0 1 0] 
s 1.746044358 _0_ MAC  --- 0 CTS 38 [46c 1 0 0] 
r 1.746348779 _1_ MAC  --- 0 CTS 38 [46c 1 0 0] 
s 1.746358779 _1_ MAC  --- 53 cbr 101 [13a 0 1 800] ------- [1:0 0:0 32 0] [47] 0 0
r 1.747167201 _0_ MAC  --- 53 cbr 43 [13a 0 1 800] ------- [1:0 0:0 32 0] [47] 1 0
s 1.747177201 _0_ MAC  --- 0 ACK 38 [0 1 0 0] 
r 1.747192201 _0_ AGT  --- 53 cbr 43 [13a 0 1 800] ------- [1:0 0:0 32 0] [47] 1 0
r 1.747481623 _1_ MAC  --- 0 ACK 38 [0 1 0 0] 
s 1.748858257 _1_ RTR  --- 54 message 44 [0 0 0 0] ------- [1:255 -1:255 32 0] 
s 1.749513257 _1_ MAC  --- 54 message 102 [0 ffffffff 1 800] ------- [1:255 -1:255 32 0] 
r 1.750329263 _7_ MAC  --- 54 message 44 [0 ffffffff 1 800] ------- [1:255 -1:255 32 0] 
r 1.750329287 _2_ MAC  --- 54 message 44 [0 ffffffff 1 800] ------- [1:255 -1:255 32 0] 
r 1.750329341 _5_ MAC  --- 54 message 44 [0 ffffffff 1 800] ------- [1:255 -1:255 32 0] 
r 1.750329397 _3_ MAC  --- 54 message 44 [0 ffffffff 1 800] ------- [1:255 -1:255 32 0] 
r 1.750329420 _9_ MAC  --- 54 message 44 [0 ffffffff 1 800] ------- [1:255 -1:255 32 0] 
r 1.750329428 _4_ MAC  --- 54 message 44 [0 ffffffff 1 800] ------- [1:255 -1:255 32 0] 
r 1.750329569 _6_ MAC  --- 54 message 44 [0 ffffffff 1 800] ------- [1:255 -1:255 32 0] 
r 1.750329604 _8_ MAC  --- 54 message 44 [0 ffffffff 1 800] ------- [1:255 -1:255 32 0] 
r 1.750329679 _0_ MAC  --- 54 message 44 [0 ffffffff 1 800] ------- [1:255 -1:255 32 0] 