D 2.000000000 _1_ IFQ  ARP 0 cbr 1000 [0 0 1 800] ------- [1:0 0:0 32 0] [0] 0 0
s 2.000515000 _1_ MAC  --- 0 ARP 86 [0 ffffffff 1 806] ------- [REQUEST 1/1 0/0]
r 2.001203308 _5_ MAC  --- 0 ARP 28 [0 ffffffff 1 806] ------- [REQUEST 1/1 0/0]
r 2.001203373 _3_ MAC  --- 0 ARP 28 [0 ffffffff 1 806] ------- [REQUEST 1/1 0/0]
r 2.001203506 _0_ MAC  --- 0 ARP 28 [0 ffffffff 1 806] ------- [REQUEST 1/1 0/0]
r 2.001203596 _4_ MAC  --- 0 ARP 28 [0 ffffffff 1 806] ------- [REQUEST 1/1 0/0]
r 2.001203673 _6_ MAC  --- 0 ARP 28 [0 ffffffff 1 806] ------- [REQUEST 1/1 0/0]
s 2.001293000 _1_ MAC  --- 0 ARP 86 [0 ffffffff 1 806] ------- [REQUEST 1/1 0/0]
r 2.001981308 _5_ MAC  --- 0 ARP 28 [0 ffffffff 1 806] ------- [REQUEST 1/1 0/0]
r 2.001981373 _3_ MAC  --- 0 ARP 28 [0 ffffffff 1 806] ------- [REQUEST 1/1 0/0]
r 2.001981506 _0_ MAC  --- 0 ARP 28 [0 ffffffff 1 806] ------- [REQUEST 1/1 0/0]
r 2.001981596 _4_ MAC  --- 0 ARP 28 [0 ffffffff 1 806] ------- [REQUEST 1/1 0/0]
r 2.001981673 _6_ MAC  --- 0 ARP 28 [0 ffffffff 1 806] ------- [REQUEST 1/1 0/0]
s 2.002571506 _0_ MAC  --- 0 ARP 86 [13a 1 0 806] ------- [REPLY 0/0 1/1]
r 2.002809103 _1_ MAC  --- 0 ARP 28 [13a 1 0 806] ------- [REPLY 0/0 1/1]
s 2.002819103 _1_ MAC  --- 0 ACK 38 [0 0 0 0] 
r 2.003123609 _0_ MAC  --- 0 ACK 38 [0 0 0 0] 
s 2.003173609 _0_ MAC  --- 0 ARP 86 [13a 1 0 806] ------- [REPLY 0/0 1/1]
r 2.003411206 _1_ MAC  --- 0 ARP 28 [13a 1 0 806] ------- [REPLY 0/0 1/1]
s 2.003421206 _1_ MAC  --- 0 ACK 38 [0 0 0 0] 
r 2.003725712 _0_ MAC  --- 0 ACK 38 [0 0 0 0] 
s 2.004095206 _1_ MAC  --- 1 cbr 81 [13a 0 1 800] ------- [1:0 0:0 32 0] [1] 0 0
r 2.004329167 _0_ MAC  --- 1 cbr 23 [13a 0 1 800] ------- [1:0 0:0 32 0] [1] 1 0
s 2.004339167 _0_ MAC  --- 0 ACK 38 [0 1 0 0] 
r 2.004643673 _1_ MAC  --- 0 ACK 38 [0 1 0 0] 
s 2.032283750 _1_ MAC  --- 2 cbr 1058 [13a 0 1 800] ------- [1:0 0:0 32 0] [2] 0 0
r 2.033228256 _0_ MAC  --- 2 cbr 1000 [13a 0 1 800] ------- [1:0 0:0 32 0] [2] 1 0
s 2.033238256 _0_ MAC  --- 0 ACK 38 [0 1 0 0] 
r 2.033542762 _1_ MAC  --- 0 ACK 38 [0 1 0 0] 
s 2.033952762 _1_ MAC  --- 3 cbr 81 [13a 0 1 800] ------- [1:0 0:0 32 0] [3] 0 0
r 2.034186723 _0_ MAC  --- 3 cbr 23 [13a 0 1 800] ------- [1:0 0:0 32 0] [3] 1 0
s 2.034196723 _0_ MAC  --- 0 ACK 38 [0 1 0 0] 
r 2.034501229 _1_ MAC  --- 0 ACK 38 [0 1 0 0] 
s 2.064252500 _1_ MAC  --- 4 cbr 1058 [13a 0 1 800] ------- [1:0 0:0 32 0] [4] 0 0
r 2.065197006 _0_ MAC  --- 4 cbr 1000 [13a 0 1 800] ------- [1:0 0:0 32 0] [4] 1 0
s 2.065207006 _0_ MAC  --- 0 ACK 38 [0 1 0 0] 
r 2.065511512 _1_ MAC  --- 0 ACK 38 [0 1 0 0] 
s 2.065601512 _1_ MAC  --- 5 cbr 81 [13a 0 1 800] ------- [1:0 0:0 32 0] [5] 0 0
r 2.065835473 _0_ MAC  --- 5 cbr 23 [13a 0 1 800] ------- [1:0 0:0 32 0] [5] 1 0
s 2.065845473 _0_ MAC  --- 0 ACK 38 [0 1 0 0] 
r 2.066149979 _1_ MAC  --- 0 ACK 38 [0 1 0 0] 
s 2.096141250 _1_ MAC  --- 6 cbr 1058 [13a 0 1 800] ------- [1:0 0:0 32 0] [6] 0 0
r 2.097085756 _0_ MAC  --- 6 cbr 1000 [13a 0 1 800] ------- [1:0 0:0 32 0] [6] 1 0
s 2.097095756 _0_ MAC  --- 0 ACK 38 [0 1 0 0] 
r 2.097400262 _1_ MAC  --- 0 ACK 38 [0 1 0 0] 
s 2.097810262 _1_ MAC  --- 7 cbr 81 [13a 0 1 800] ------- [1:0 0:0 32 0] [7] 0 0
r 2.098044223 _0_ MAC  --- 7 cbr 23 [13a 0 1 800] ------- [1:0 0:0 32 0] [7] 1 0
s 2.098054223 _0_ MAC  --- 0 ACK 38 [0 1 0 0] 
r 2.098358729 _1_ MAC  --- 0 ACK 38 [0 1 0 0] 
s 2.128110000 _1_ MAC  --- 8 cbr 1058 [13a 0 1 800] ------- [1:0 0:0 32 0] [8] 0 0
r 2.129054506 _0_ MAC  --- 8 cbr 1000 [13a 0 1 800] ------- [1:0 0:0 32 0] [8] 1 0
s 2.129064506 _0_ MAC  --- 0 ACK 38 [0 1 0 0] 
r 2.129369012 _1_ MAC  --- 0 ACK 38 [0 1 0 0] 
s 2.129899012 _1_ MAC  --- 9 cbr 81 [13a 0 1 800] ------- [1:0 0:0 32 0] [9] 0 0
r 2.130132973 _0_ MAC  --- 9 cbr 23 [13a 0 1 800] ------- [1:0 0:0 32 0] [9] 1 0
s 2.130142973 _0_ MAC  --- 0 ACK 38 [0 1 0 0] 
r 2.130447479 _1_ MAC  --- 0 ACK 38 [0 1 0 0] 
s 2.160238750 _1_ MAC  --- 10 cbr 1058 [13a 0 1 800] ------- [1:0 0:0 32 0] [10] 0 0
r 2.161183256 _0_ MAC  --- 10 cbr 1000 [13a 0 1 800] ------- [1:0 0:0 32 0] [10] 1 0
s 2.161193256 _0_ MAC  --- 0 ACK 38 [0 1 0 0] 
r 2.161497762 _1_ MAC  --- 0 ACK 38 [0 1 0 0] 
s 2.161747762 _1_ MAC  --- 11 cbr 81 [13a 0 1 800] ------- [1:0 0:0 32 0] [11] 0 0
r 2.161981723 _0_ MAC  --- 11 cbr 23 [13a 0 1 800] ------- [1:0 0:0 32 0] [11] 1 0
s 2.161991723 _0_ MAC  --- 0 ACK 38 [0 1 0 0] 
r 2.162296229 _1_ MAC  --- 0 ACK 38 [0 1 0 0] 
s 2.191907500 _1_ MAC  --- 12 cbr 1058 [13a 0 1 800] ------- [1:0 0:0 32 0] [12] 0 0
r 2.192852006 _0_ MAC  --- 12 cbr 1000 [13a 0 1 800] ------- [1:0 0:0 32 0] [12] 1 0
s 2.192862006 _0_ MAC  --- 0 ACK 38 [0 1 0 0] 
r 2.193166512 _1_ MAC  --- 0 ACK 38 [0 1 0 0] 
s 2.193456512 _1_ MAC  --- 13 cbr 81 [13a 0 1 800] ------- [1:0 0:0 32 0] [13] 0 0
r 2.193690473 _0_ MAC  --- 13 cbr 23 [13a 0 1 800] ------- [1:0 0:0 32 0] [13] 1 0
s 2.193700473 _0_ MAC  --- 0 ACK 38 [0 1 0 0] 
r 2.194004979 _1_ MAC  --- 0 ACK 38 [0 1 0 0] 
s 2.224036250 _1_ MAC  --- 14 cbr 1058 [13a 0 1 800] ------- [1:0 0:0 32 0] [14] 0 0
r 2.224980756 _0_ MAC  --- 14 cbr 1000 [13a 0 1 800] ------- [1:0 0:0 32 0] [14] 1 0
s 2.224990756 _0_ MAC  --- 0 ACK 38 [0 1 0 0] 
r 2.225295262 _1_ MAC  --- 0 ACK 38 [0 1 0 0] 
s 2.225925262 _1_ MAC  --- 15 cbr 81 [13a 0 1 800] ------- [1:0 0:0 32 0] [15] 0 0
r 2.226159223 _0_ MAC  --- 15 cbr 23 [13a 0 1 800] ------- [1:0 0:0 32 0] [15] 1 0
s 2.226169223 _0_ MAC  --- 0 ACK 38 [0 1 0 0] 
r 2.226473729 _1_ MAC  --- 0 ACK 38 [0 1 0 0] 
s 2.256365000 _1_ MAC  --- 16 cbr 1058 [13a 0 1 800] ------- [1:0 0:0 32 0] [16] 0 0
r 2.257309506 _0_ MAC  --- 16 cbr 1000 [13a 0 1 800] ------- [1:0 0:0 32 0] [16] 1 0
s 2.257319506 _0_ MAC  --- 0 ACK 38 [0 1 0 0] 
r 2.257624012 _1_ MAC  --- 0 ACK 38 [0 1 0 0] 
s 2.258034012 _1_ MAC  --- 17 cbr 81 [13a 0 1 800] ------- [1:0 0:0 32 0] [17] 0 0
r 2.258267973 _0_ MAC  --- 17 cbr 23 [13a 0 1 800] ------- [1:0 0:0 32 0] [17] 1 0
s 2.258277973 _0_ MAC  --- 0 ACK 38 [0 1 0 0] 
r 2.258582479 _1_ MAC  --- 0 ACK 38 [0 1 0 0] 
s 2.288093750 _1_ MAC  --- 18 cbr 1058 [13a 0 1 800] ------- [1:0 0:0 32 0] [18] 0 0
r 2.289038256 _0_ MAC  --- 18 cbr 1000 [13a 0 1 800] ------- [1:0 0:0 32 0] [18] 1 0
s 2.289048256 _0_ MAC  --- 0 ACK 38 [0 1 0 0] 
r 2.289352762 _1_ MAC  --- 0 ACK 38 [0 1 0 0] 
s 2.289762762 _1_ MAC  --- 19 cbr 81 [13a 0 1 800] ------- [1:0 0:0 32 0] [19] 0 0
r 2.289996723 _0_ MAC  --- 19 cbr 23 [13a 0 1 800] ------- [1:0 0:0 32 0] [19] 1 0
s 2.290006723 _0_ MAC  --- 0 ACK 38 [0 1 0 0] 
r 2.290311229 _1_ MAC  --- 0 ACK 38 [0 1 0 0] 
s 2.319842500 _1_ MAC  --- 20 cbr 1058 [13a 0 1 800] ------- [1:0 0:0 32 0] [20] 0 0
r 2.320787006 _0_ MAC  --- 20 cbr 1000 [13a 0 1 800] ------- [1:0 0:0 32 0] [20] 1 0
s 2.320797006 _0_ MAC  --- 0 ACK 38 [0 1 0 0] 
r 2.321101512 _1_ MAC  --- 0 ACK 38 [0 1 0 0] 
s 2.321431512 _1_ MAC  --- 21 cbr 81 [13a 0 1 800] ------- [1:0 0:0 32 0] [21] 0 0
r 2.321665473 _0_ MAC  --- 21 cbr 23 [13a 0 1 800] ------- [1:0 0:0 32 0] [21] 1 0
s 2.321675473 _0_ MAC  --- 0 ACK 38 [0 1 0 0] 
r 2.321979979 _1_ MAC  --- 0 ACK 38 [0 1 0 0] 
s 2.351831250 _1_ MAC  --- 22 cbr 1058 [13a 0 1 800] ------- [1:0 0:0 32 0] [22] 0 0
r 2.352775756 _0_ MAC  --- 22 cbr 1000 [13a 0 1 800] ------- [1:0 0:0 32 0] [22] 1 0
s 2.352785756 _0_ MAC  --- 0 ACK 38 [0 1 0 0] 
r 2.353090262 _1_ MAC  --- 0 ACK 38 [0 1 0 0] 
s 2.353660262 _1_ MAC  --- 23 cbr 81 [13a 0 1 800] ------- [1:0 0:0 32 0] [23] 0 0
r 2.353894223 _0_ MAC  --- 23 cbr 23 [13a 0 1 800] ------- [1:0 0:0 32 0] [23] 1 0
s 2.353904223 _0_ MAC  --- 0 ACK 38 [0 1 0 0] 
r 2.354208729 _1_ MAC  --- 0 ACK 38 [0 1 0 0] 
s 2.383900000 _1_ MAC  --- 24 cbr 1058 [13a 0 1 800] ------- [1:0 0:0 32 0] [24] 0 0
r 2.384844506 _0_ MAC  --- 24 cbr 1000 [13a 0 1 800] ------- [1:0 0:0 32 0] [24] 1 0
s 2.384854506 _0_ MAC  --- 0 ACK 38 [0 1 0 0] 
r 2.385159012 _1_ MAC  --- 0 ACK 38 [0 1 0 0] 
s 2.385789012 _1_ MAC  --- 25 cbr 81 [13a 0 1 800] ------- [1:0 0:0 32 0] [25] 0 0
r 2.386022973 _0_ MAC  --- 25 cbr 23 [13a 0 1 800] ------- [1:0 0:0 32 0] [25] 1 0
s 2.386032973 _0_ MAC  --- 0 ACK 38 [0 1 0 0] 
r 2.386337479 _1_ MAC  --- 0 ACK 38 [0 1 0 0] 
s 2.415788750 _1_ MAC  --- 26 cbr 1058 [13a 0 1 800] ------- [1:0 0:0 32 0] [26] 0 0
r 2.416733256 _0_ MAC  --- 26 cbr 1000 [13a 0 1 800] ------- [1:0 0:0 32 0] [26] 1 0
s 2.416743256 _0_ MAC  --- 0 ACK 38 [0 1 0 0] 
r 2.417047762 _1_ MAC  --- 0 ACK 38 [0 1 0 0] 
s 2.417437762 _1_ MAC  --- 27 cbr 81 [13a 0 1 800] ------- [1:0 0:0 32 0] [27] 0 0
r 2.417671723 _0_ MAC  --- 27 cbr 23 [13a 0 1 800] ------- [1:0 0:0 32 0] [27] 1 0
s 2.417681723 _0_ MAC  --- 0 ACK 38 [0 1 0 0] 
r 2.417986229 _1_ MAC  --- 0 ACK 38 [0 1 0 0] 
s 2.447917500 _1_ MAC  --- 28 cbr 1058 [13a 0 1 800] ------- [1:0 0:0 32 0] [28] 0 0
r 2.448862006 _0_ MAC  --- 28 cbr 1000 [13a 0 1 800] ------- [1:0 0:0 32 0] [28] 1 0
s 2.448872006 _0_ MAC  --- 0 ACK 38 [0 1 0 0] 
r 2.449176512 _1_ MAC  --- 0 ACK 38 [0 1 0 0] 
s 2.449406512 _1_ MAC  --- 29 cbr 81 [13a 0 1 800] ------- [1:0 0:0 32 0] [29] 0 0
r 2.449640473 _0_ MAC  --- 29 cbr 23 [13a 0 1 800] ------- [1:0 0:0 32 0] [29] 1 0
s 2.449650473 _0_ MAC  --- 0 ACK 38 [0 1 0 0] 
r 2.449954979 _1_ MAC  --- 0 ACK 38 [0 1 0 0] 
s 2.480086250 _1_ MAC  --- 30 cbr 1058 [13a 0 1 800] ------- [1:0 0:0 32 0] [30] 0 0
r 2.481030756 _0_ MAC  --- 30 cbr 1000 [13a 0 1 800] ------- [1:0 0:0 32 0] [30] 1 0
s 2.481040756 _0_ MAC  --- 0 ACK 38 [0 1 0 0] 
r 2.481345262 _1_ MAC  --- 0 ACK 38 [0 1 0 0] 
s 2.481395262 _1_ MAC  --- 31 cbr 81 [13a 0 1 800] ------- [1:0 0:0 32 0] [31] 0 0
r 2.481629223 _0_ MAC  --- 31 cbr 23 [13a 0 1 800] ------- [1:0 0:0 32 0] [31] 1 0
s 2.481639223 _0_ MAC  --- 0 ACK 38 [0 1 0 0] 
r 2.481943729 _1_ MAC  --- 0 ACK 38 [0 1 0 0] 
s 2.511895000 _1_ MAC  --- 32 cbr 1058 [13a 0 1 800] ------- [1:0 0:0 32 0] [32] 0 0
r 2.512839506 _0_ MAC  --- 32 cbr 1000 [13a 0 1 800] ------- [1:0 0:0 32 0] [32] 1 0
s 2.512849506 _0_ MAC  --- 0 ACK 38 [0 1 0 0] 
r 2.513154012 _1_ MAC  --- 0 ACK 38 [0 1 0 0] 
s 2.513364012 _1_ MAC  --- 33 cbr 81 [13a 0 1 800] ------- [1:0 0:0 32 0] [33] 0 0
r 2.513597973 _0_ MAC  --- 33 cbr 23 [13a 0 1 800] ------- [1:0 0:0 32 0] [33] 1 0
s 2.513607973 _0_ MAC  --- 0 ACK 38 [0 1 0 0] 
r 2.513912479 _1_ MAC  --- 0 ACK 38 [0 1 0 0] 
s 2.543623750 _1_ MAC  --- 34 cbr 1058 [13a 0 1 800] ------- [1:0 0:0 32 0] [34] 0 0
r 2.544568256 _0_ MAC  --- 34 cbr 1000 [13a 0 1 800] ------- [1:0 0:0 32 0] [34] 1 0
s 2.544578256 _0_ MAC  --- 0 ACK 38 [0 1 0 0] 
r 2.544882762 _1_ MAC  --- 0 ACK 38 [0 1 0 0] 
s 2.545232762 _1_ MAC  --- 35 cbr 81 [13a 0 1 800] ------- [1:0 0:0 32 0] [35] 0 0
r 2.545466723 _0_ MAC  --- 35 cbr 23 [13a 0 1 800] ------- [1:0 0:0 32 0] [35] 1 0
s 2.545476723 _0_ MAC  --- 0 ACK 38 [0 1 0 0] 
r 2.545781229 _1_ MAC  --- 0 ACK 38 [0 1 0 0] 
s 2.575752500 _1_ MAC  --- 36 cbr 1058 [13a 0 1 800] ------- [1:0 0:0 32 0] [36] 0 0
r 2.576697006 _0_ MAC  --- 36 cbr 1000 [13a 0 1 800] ------- [1:0 0:0 32 0] [36] 1 0
s 2.576707006 _0_ MAC  --- 0 ACK 38 [0 1 0 0] 
r 2.577011512 _1_ MAC  --- 0 ACK 38 [0 1 0 0] 
s 2.577361512 _1_ MAC  --- 37 cbr 81 [13a 0 1 800] ------- [1:0 0:0 32 0] [37] 0 0
r 2.577595473 _0_ MAC  --- 37 cbr 23 [13a 0 1 800] ------- [1:0 0:0 32 0] [37] 1 0
s 2.577605473 _0_ MAC  --- 0 ACK 38 [0 1 0 0] 
r 2.577909979 _1_ MAC  --- 0 ACK 38 [0 1 0 0] 
s 2.607501250 _1_ MAC  --- 38 cbr 1058 [13a 0 1 800] ------- [1:0 0:0 32 0] [38] 0 0
r 2.608445756 _0_ MAC  --- 38 cbr 1000 [13a 0 1 800] ------- [1:0 0:0 32 0] [38] 1 0
s 2.608455756 _0_ MAC  --- 0 ACK 38 [0 1 0 0] 
r 2.608760262 _1_ MAC  --- 0 ACK 38 [0 1 0 0] 
s 2.609290262 _1_ MAC  --- 39 cbr 81 [13a 0 1 800] ------- [1:0 0:0 32 0] [39] 0 0
r 2.609524223 _0_ MAC  --- 39 cbr 23 [13a 0 1 800] ------- [1:0 0:0 32 0] [39] 1 0
s 2.609534223 _0_ MAC  --- 0 ACK 38 [0 1 0 0] 
r 2.609838729 _1_ MAC  --- 0 ACK 38 [0 1 0 0] 
s 2.639570000 _1_ MAC  --- 40 cbr 1058 [13a 0 1 800] ------- [1:0 0:0 32 0] [40] 0 0
r 2.640514506 _0_ MAC  --- 40 cbr 1000 [13a 0 1 800] ------- [1:0 0:0 32 0] [40] 1 0
s 2.640524506 _0_ MAC  --- 0 ACK 38 [0 1 0 0] 
r 2.640829012 _1_ MAC  --- 0 ACK 38 [0 1 0 0] 
s 2.641179012 _1_ MAC  --- 41 cbr 81 [13a 0 1 800] ------- [1:0 0:0 32 0] [41] 0 0
r 2.641412973 _0_ MAC  --- 41 cbr 23 [13a 0 1 800] ------- [1:0 0:0 32 0] [41] 1 0
s 2.641422973 _0_ MAC  --- 0 ACK 38 [0 1 0 0] 
r 2.641727479 _1_ MAC  --- 0 ACK 38 [0 1 0 0] 
s 2.671878750 _1_ MAC  --- 42 cbr 1058 [13a 0 1 800] ------- [1:0 0:0 32 0] [42] 0 0
r 2.672823256 _0_ MAC  --- 42 cbr 1000 [13a 0 1 800] ------- [1:0 0:0 32 0] [42] 1 0
s 2.672833256 _0_ MAC  --- 0 ACK 38 [0 1 0 0] 
r 2.673137762 _1_ MAC  --- 0 ACK 38 [0 1 0 0] 
s 2.673307762 _1_ MAC  --- 43 cbr 81 [13a 0 1 800] ------- [1:0 0:0 32 0] [43] 0 0
r 2.673541723 _0_ MAC  --- 43 cbr 23 [13a 0 1 800] ------- [1:0 0:0 32 0] [43] 1 0
s 2.673551723 _0_ MAC  --- 0 ACK 38 [0 1 0 0] 
r 2.673856229 _1_ MAC  --- 0 ACK 38 [0 1 0 0] 
s 2.703487500 _1_ MAC  --- 44 cbr 1058 [13a 0 1 800] ------- [1:0 0:0 32 0] [44] 0 0
r 2.704432006 _0_ MAC  --- 44 cbr 1000 [13a 0 1 800] ------- [1:0 0:0 32 0] [44] 1 0
s 2.704442006 _0_ MAC  --- 0 ACK 38 [0 1 0 0] 
r 2.704746512 _1_ MAC  --- 0 ACK 38 [0 1 0 0] 
s 2.704876512 _1_ MAC  --- 45 cbr 81 [13a 0 1 800] ------- [1:0 0:0 32 0] [45] 0 0
r 2.705110473 _0_ MAC  --- 45 cbr 23 [13a 0 1 800] ------- [1:0 0:0 32 0] [45] 1 0
s 2.705120473 _0_ MAC  --- 0 ACK 38 [0 1 0 0] 
r 2.705424979 _1_ MAC  --- 0 ACK 38 [0 1 0 0] 
s 2.735556250 _1_ MAC  --- 46 cbr 1058 [13a 0 1 800] ------- [1:0 0:0 32 0] [46] 0 0
r 2.736500756 _0_ MAC  --- 46 cbr 1000 [13a 0 1 800] ------- [1:0 0:0 32 0] [46] 1 0
s 2.736510756 _0_ MAC  --- 0 ACK 38 [0 1 0 0] 
r 2.736815262 _1_ MAC  --- 0 ACK 38 [0 1 0 0] 
s 2.736925262 _1_ MAC  --- 47 cbr 81 [13a 0 1 800] ------- [1:0 0:0 32 0] [47] 0 0
r 2.737159223 _0_ MAC  --- 47 cbr 23 [13a 0 1 800] ------- [1:0 0:0 32 0] [47] 1 0
s 2.737169223 _0_ MAC  --- 0 ACK 38 [0 1 0 0] 
r 2.737473729 _1_ MAC  --- 0 ACK 38 [0 1 0 0] 
s 2.767925000 _1_ MAC  --- 48 cbr 1058 [13a 0 1 800] ------- [1:0 0:0 32 0] [48] 0 0
r 2.768869506 _0_ MAC  --- 48 cbr 1000 [13a 0 1 800] ------- [1:0 0:0 32 0] [48] 1 0
s 2.768879506 _0_ MAC  --- 0 ACK 38 [0 1 0 0] 
r 2.769184012 _1_ MAC  --- 0 ACK 38 [0 1 0 0] 
s 2.769354012 _1_ MAC  --- 49 cbr 81 [13a 0 1 800] ------- [1:0 0:0 32 0] [49] 0 0
r 2.769587973 _0_ MAC  --- 49 cbr 23 [13a 0 1 800] ------- [1:0 0:0 32 0] [49] 1 0
s 2.769597973 _0_ MAC  --- 0 ACK 38 [0 1 0 0] 
r 2.769902479 _1_ MAC  --- 0 ACK 38 [0 1 0 0] 
s 2.799873750 _1_ MAC  --- 50 cbr 1058 [13a 0 1 800] ------- [1:0 0:0 32 0] [50] 0 0
r 2.800818256 _0_ MAC  --- 50 cbr 1000 [13a 0 1 800] ------- [1:0 0:0 32 0] [50] 1 0
s 2.800828256 _0_ MAC  --- 0 ACK 38 [0 1 0 0] 
r 2.801132762 _1_ MAC  --- 0 ACK 38 [0 1 0 0] 
s 2.801302762 _1_ MAC  --- 51 cbr 81 [13a 0 1 800] ------- [1:0 0:0 32 0] [51] 0 0
r 2.801536723 _0_ MAC  --- 51 cbr 23 [13a 0 1 800] ------- [1:0 0:0 32 0] [51] 1 0
s 2.801546723 _0_ MAC  --- 0 ACK 38 [0 1 0 0] 
r 2.801851229 _1_ MAC  --- 0 ACK 38 [0 1 0 0] 
s 2.831702500 _1_ MAC  --- 52 cbr 1058 [13a 0 1 800] ------- [1:0 0:0 32 0] [52] 0 0
r 2.832647006 _0_ MAC  --- 52 cbr 1000 [13a 0 1 800] ------- [1:0 0:0 32 0] [52] 1 0
s 2.832657006 _0_ MAC  --- 0 ACK 38 [0 1 0 0] 
r 2.832961512 _1_ MAC  --- 0 ACK 38 [0 1 0 0] 
s 2.833551512 _1_ MAC  --- 53 cbr 81 [13a 0 1 800] ------- [1:0 0:0 32 0] [53] 0 0
r 2.833785473 _0_ MAC  --- 53 cbr 23 [13a 0 1 800] ------- [1:0 0:0 32 0] [53] 1 0
s 2.833795473 _0_ MAC  --- 0 ACK 38 [0 1 0 0] 
r 2.834099979 _1_ MAC  --- 0 ACK 38 [0 1 0 0] 
s 2.863531250 _1_ MAC  --- 54 cbr 1058 [13a 0 1 800] ------- [1:0 0:0 32 0] [54] 0 0
r 2.864475756 _0_ MAC  --- 54 cbr 1000 [13a 0 1 800] ------- [1:0 0:0 32 0] [54] 1 0
s 2.864485756 _0_ MAC  --- 0 ACK 38 [0 1 0 0] 
r 2.864790262 _1_ MAC  --- 0 ACK 38 [0 1 0 0] 
s 2.865140262 _1_ MAC  --- 55 cbr 81 [13a 0 1 800] ------- [1:0 0:0 32 0] [55] 0 0
r 2.865374223 _0_ MAC  --- 55 cbr 23 [13a 0 1 800] ------- [1:0 0:0 32 0] [55] 1 0
s 2.865384223 _0_ MAC  --- 0 ACK 38 [0 1 0 0] 
r 2.865688729 _1_ MAC  --- 0 ACK 38 [0 1 0 0] 
s 2.895240000 _1_ MAC  --- 56 cbr 1058 [13a 0 1 800] ------- [1:0 0:0 32 0] [56] 0 0
r 2.896184506 _0_ MAC  --- 56 cbr 1000 [13a 0 1 800] ------- [1:0 0:0 32 0] [56] 1 0
s 2.896194506 _0_ MAC  --- 0 ACK 38 [0 1 0 0] 
r 2.896499012 _1_ MAC  --- 0 ACK 38 [0 1 0 0] 
s 2.897129012 _1_ MAC  --- 57 cbr 81 [13a 0 1 800] ------- [1:0 0:0 32 0] [57] 0 0
r 2.897362973 _0_ MAC  --- 57 cbr 23 [13a 0 1 800] ------- [1:0 0:0 32 0] [57] 1 0
s 2.897372973 _0_ MAC  --- 0 ACK 38 [0 1 0 0] 
r 2.897677479 _1_ MAC  --- 0 ACK 38 [0 1 0 0] 
s 2.927348750 _1_ MAC  --- 58 cbr 1058 [13a 0 1 800] ------- [1:0 0:0 32 0] [58] 0 0
r 2.928293256 _0_ MAC  --- 58 cbr 1000 [13a 0 1 800] ------- [1:0 0:0 32 0] [58] 1 0
s 2.928303256 _0_ MAC  --- 0 ACK 38 [0 1 0 0] 
r 2.928607762 _1_ MAC  --- 0 ACK 38 [0 1 0 0] 
s 2.928817762 _1_ MAC  --- 59 cbr 81 [13a 0 1 800] ------- [1:0 0:0 32 0] [59] 0 0
r 2.929051723 _0_ MAC  --- 59 cbr 23 [13a 0 1 800] ------- [1:0 0:0 32 0] [59] 1 0
s 2.929061723 _0_ MAC  --- 0 ACK 38 [0 1 0 0] 
r 2.929366229 _1_ MAC  --- 0 ACK 38 [0 1 0 0] 
s 2.959537500 _1_ MAC  --- 60 cbr 1058 [13a 0 1 800] ------- [1:0 0:0 32 0] [60] 0 0
r 2.960482006 _0_ MAC  --- 60 cbr 1000 [13a 0 1 800] ------- [1:0 0:0 32 0] [60] 1 0
s 2.960492006 _0_ MAC  --- 0 ACK 38 [0 1 0 0] 
r 2.960796512 _1_ MAC  --- 0 ACK 38 [0 1 0 0] 
s 2.960966512 _1_ MAC  --- 61 cbr 81 [13a 0 1 800] ------- [1:0 0:0 32 0] [61] 0 0
r 2.961200473 _0_ MAC  --- 61 cbr 23 [13a 0 1 800] ------- [1:0 0:0 32 0] [61] 1 0
s 2.961210473 _0_ MAC  --- 0 ACK 38 [0 1 0 0] 
r 2.961514979 _1_ MAC  --- 0 ACK 38 [0 1 0 0] 
s 2.991326250 _1_ MAC  --- 62 cbr 1058 [13a 0 1 800] ------- [1:0 0:0 32 0] [62] 0 0
r 2.992270756 _0_ MAC  --- 62 cbr 1000 [13a 0 1 800] ------- [1:0 0:0 32 0] [62] 1 0
s 2.992280756 _0_ MAC  --- 0 ACK 38 [0 1 0 0] 
r 2.992585262 _1_ MAC  --- 0 ACK 38 [0 1 0 0] 
s 2.992635262 _1_ MAC  --- 63 cbr 81 [13a 0 1 800] ------- [1:0 0:0 32 0] [63] 0 0
r 2.992869223 _0_ MAC  --- 63 cbr 23 [13a 0 1 800] ------- [1:0 0:0 32 0] [63] 1 0
s 2.992879223 _0_ MAC  --- 0 ACK 38 [0 1 0 0] 
r 2.993183729 _1_ MAC  --- 0 ACK 38 [0 1 0 0] 
D 3.000000000 _2_ IFQ  ARP 64 cbr 1000 [0 0 2 800] ------- [2:0 0:1 32 0] [0] 0 0
s 3.000415000 _2_ MAC  --- 0 ARP 86 [0 ffffffff 2 806] ------- [REQUEST 2/2 0/0]
r 3.001103352 _9_ MAC  --- 0 ARP 28 [0 ffffffff 2 806] ------- [REQUEST 2/2 0/0]
r 3.001103361 _4_ MAC  --- 0 ARP 28 [0 ffffffff 2 806] ------- [REQUEST 2/2 0/0]
r 3.001103506 _0_ MAC  --- 0 ARP 28 [0 ffffffff 2 806] ------- [REQUEST 2/2 0/0]
r 3.001103640 _5_ MAC  --- 0 ARP 28 [0 ffffffff 2 806] ------- [REQUEST 2/2 0/0]
r 3.001103667 _8_ MAC  --- 0 ARP 28 [0 ffffffff 2 806] ------- [REQUEST 2/2 0/0]
s 3.001473000 _2_ MAC  --- 0 ARP 86 [0 ffffffff 2 806] ------- [REQUEST 2/2 0/0]
r 3.002161352 _9_ MAC  --- 0 ARP 28 [0 ffffffff 2 806] ------- [REQUEST 2/2 0/0]
r 3.002161361 _4_ MAC  --- 0 ARP 28 [0 ffffffff 2 806] ------- [REQUEST 2/2 0/0]
r 3.002161506 _0_ MAC  --- 0 ARP 28 [0 ffffffff 2 806] ------- [REQUEST 2/2 0/0]
r 3.002161640 _5_ MAC  --- 0 ARP 28 [0 ffffffff 2 806] ------- [REQUEST 2/2 0/0]
r 3.002161667 _8_ MAC  --- 0 ARP 28 [0 ffffffff 2 806] ------- [REQUEST 2/2 0/0]
s 3.002331506 _0_ MAC  --- 0 ARP 86 [13a 2 0 806] ------- [REPLY 0/0 2/2]
r 3.002569102 _2_ MAC  --- 0 ARP 28 [13a 2 0 806] ------- [REPLY 0/0 2/2]
s 3.002579102 _2_ MAC  --- 0 ACK 38 [0 0 0 0] 
r 3.002883608 _0_ MAC  --- 0 ACK 38 [0 0 0 0] 
s 3.003253608 _0_ MAC  --- 0 ARP 86 [13a 2 0 806] ------- [REPLY 0/0 2/2]
r 3.003491204 _2_ MAC  --- 0 ARP 28 [13a 2 0 806] ------- [REPLY 0/0 2/2]
s 3.003501204 _2_ MAC  --- 0 ACK 38 [0 0 0 0] 
r 3.003805710 _0_ MAC  --- 0 ACK 38 [0 0 0 0] 
s 3.003915204 _2_ MAC  --- 65 cbr 81 [13a 0 2 800] ------- [2:0 0:1 32 0] [1] 0 0
r 3.004149165 _0_ MAC  --- 65 cbr 23 [13a 0 2 800] ------- [2:0 0:1 32 0] [1] 1 0
s 3.004159165 _0_ MAC  --- 0 ACK 38 [0 2 0 0] 
r 3.004463670 _2_ MAC  --- 0 ACK 38 [0 2 0 0] 
s 3.023335000 _1_ MAC  --- 66 cbr 1058 [13a 0 1 800] ------- [1:0 0:0 32 0] [64] 0 0
r 3.024279506 _0_ MAC  --- 66 cbr 1000 [13a 0 1 800] ------- [1:0 0:0 32 0] [64] 1 0
s 3.024289506 _0_ MAC  --- 0 ACK 38 [0 1 0 0] 
r 3.024594012 _1_ MAC  --- 0 ACK 38 [0 1 0 0] 
s 3.024744012 _1_ MAC  --- 67 cbr 81 [13a 0 1 800] ------- [1:0 0:0 32 0] [65] 0 0
r 3.024977973 _0_ MAC  --- 67 cbr 23 [13a 0 1 800] ------- [1:0 0:0 32 0] [65] 1 0
s 3.024987973 _0_ MAC  --- 0 ACK 38 [0 1 0 0] 
r 3.025292479 _1_ MAC  --- 0 ACK 38 [0 1 0 0] 
s 3.032103750 _2_ MAC  --- 68 cbr 1058 [13a 0 2 800] ------- [2:0 0:1 32 0] [2] 0 0
r 3.033048256 _0_ MAC  --- 68 cbr 1000 [13a 0 2 800] ------- [2:0 0:1 32 0] [2] 1 0
s 3.033058256 _0_ MAC  --- 0 ACK 38 [0 2 0 0] 
r 3.033362761 _2_ MAC  --- 0 ACK 38 [0 2 0 0] 
s 3.033932761 _2_ MAC  --- 69 cbr 81 [13a 0 2 800] ------- [2:0 0:1 32 0] [3] 0 0
r 3.034166721 _0_ MAC  --- 69 cbr 23 [13a 0 2 800] ------- [2:0 0:1 32 0] [3] 1 0
s 3.034176721 _0_ MAC  --- 0 ACK 38 [0 2 0 0] 
r 3.034481227 _2_ MAC  --- 0 ACK 38 [0 2 0 0] 
s 3.055463750 _1_ MAC  --- 70 cbr 1058 [13a 0 1 800] ------- [1:0 0:0 32 0] [66] 0 0
r 3.056408256 _0_ MAC  --- 70 cbr 1000 [13a 0 1 800] ------- [1:0 0:0 32 0] [66] 1 0
s 3.056418256 _0_ MAC  --- 0 ACK 38 [0 1 0 0] 
r 3.056722762 _1_ MAC  --- 0 ACK 38 [0 1 0 0] 
s 3.056792762 _1_ MAC  --- 71 cbr 81 [13a 0 1 800] ------- [1:0 0:0 32 0] [67] 0 0
r 3.057026723 _0_ MAC  --- 71 cbr 23 [13a 0 1 800] ------- [1:0 0:0 32 0] [67] 1 0
s 3.057036723 _0_ MAC  --- 0 ACK 38 [0 1 0 0] 
r 3.057341229 _1_ MAC  --- 0 ACK 38 [0 1 0 0] 
s 3.064072500 _2_ MAC  --- 72 cbr 1058 [13a 0 2 800] ------- [2:0 0:1 32 0] [4] 0 0
r 3.065017006 _0_ MAC  --- 72 cbr 1000 [13a 0 2 800] ------- [2:0 0:1 32 0] [4] 1 0
s 3.065027006 _0_ MAC  --- 0 ACK 38 [0 2 0 0] 
r 3.065331511 _2_ MAC  --- 0 ACK 38 [0 2 0 0] 
s 3.065641511 _2_ MAC  --- 73 cbr 81 [13a 0 2 800] ------- [2:0 0:1 32 0] [5] 0 0
r 3.065875471 _0_ MAC  --- 73 cbr 23 [13a 0 2 800] ------- [2:0 0:1 32 0] [5] 1 0
s 3.065885471 _0_ MAC  --- 0 ACK 38 [0 2 0 0] 
r 3.066189977 _2_ MAC  --- 0 ACK 38 [0 2 0 0] 
s 3.087032500 _1_ MAC  --- 74 cbr 1058 [13a 0 1 800] ------- [1:0 0:0 32 0] [68] 0 0
r 3.087977006 _0_ MAC  --- 74 cbr 1000 [13a 0 1 800] ------- [1:0 0:0 32 0] [68] 1 0
s 3.087987006 _0_ MAC  --- 0 ACK 38 [0 1 0 0] 
r 3.088291512 _1_ MAC  --- 0 ACK 38 [0 1 0 0] 
s 3.088721512 _1_ MAC  --- 75 cbr 81 [13a 0 1 800] ------- [1:0 0:0 32 0] [69] 0 0
r 3.088955473 _0_ MAC  --- 75 cbr 23 [13a 0 1 800] ------- [1:0 0:0 32 0] [69] 1 0
s 3.088965473 _0_ MAC  --- 0 ACK 38 [0 1 0 0] 
r 3.089269979 _1_ MAC  --- 0 ACK 38 [0 1 0 0] 
s 3.096361250 _2_ MAC  --- 76 cbr 1058 [13a 0 2 800] ------- [2:0 0:1 32 0] [6] 0 0
r 3.097305756 _0_ MAC  --- 76 cbr 1000 [13a 0 2 800] ------- [2:0 0:1 32 0] [6] 1 0
s 3.097315756 _0_ MAC  --- 0 ACK 38 [0 2 0 0] 
r 3.097620261 _2_ MAC  --- 0 ACK 38 [0 2 0 0] 
s 3.098150261 _2_ MAC  --- 77 cbr 81 [13a 0 2 800] ------- [2:0 0:1 32 0] [7] 0 0
r 3.098384221 _0_ MAC  --- 77 cbr 23 [13a 0 2 800] ------- [2:0 0:1 32 0] [7] 1 0
s 3.098394221 _0_ MAC  --- 0 ACK 38 [0 2 0 0] 
r 3.098698727 _2_ MAC  --- 0 ACK 38 [0 2 0 0] 
s 3.119161250 _1_ MAC  --- 78 cbr 1058 [13a 0 1 800] ------- [1:0 0:0 32 0] [70] 0 0
r 3.120105756 _0_ MAC  --- 78 cbr 1000 [13a 0 1 800] ------- [1:0 0:0 32 0] [70] 1 0
s 3.120115756 _0_ MAC  --- 0 ACK 38 [0 1 0 0] 
r 3.120420262 _1_ MAC  --- 0 ACK 38 [0 1 0 0] 
s 3.121010262 _1_ MAC  --- 79 cbr 81 [13a 0 1 800] ------- [1:0 0:0 32 0] [71] 0 0
r 3.121244223 _0_ MAC  --- 79 cbr 23 [13a 0 1 800] ------- [1:0 0:0 32 0] [71] 1 0
s 3.121254223 _0_ MAC  --- 0 ACK 38 [0 1 0 0] 
r 3.121558729 _1_ MAC  --- 0 ACK 38 [0 1 0 0] 
s 3.128090000 _2_ MAC  --- 80 cbr 1058 [13a 0 2 800] ------- [2:0 0:1 32 0] [8] 0 0
r 3.129034506 _0_ MAC  --- 80 cbr 1000 [13a 0 2 800] ------- [2:0 0:1 32 0] [8] 1 0
s 3.129044506 _0_ MAC  --- 0 ACK 38 [0 2 0 0] 
r 3.129349011 _2_ MAC  --- 0 ACK 38 [0 2 0 0] 
s 3.129639011 _2_ MAC  --- 81 cbr 81 [13a 0 2 800] ------- [2:0 0:1 32 0] [9] 0 0
r 3.129872971 _0_ MAC  --- 81 cbr 23 [13a 0 2 800] ------- [2:0 0:1 32 0] [9] 1 0
s 3.129882971 _0_ MAC  --- 0 ACK 38 [0 2 0 0] 
r 3.130187477 _2_ MAC  --- 0 ACK 38 [0 2 0 0] 
s 3.151050000 _1_ MAC  --- 82 cbr 1058 [13a 0 1 800] ------- [1:0 0:0 32 0] [72] 0 0
r 3.151994506 _0_ MAC  --- 82 cbr 1000 [13a 0 1 800] ------- [1:0 0:0 32 0] [72] 1 0
s 3.152004506 _0_ MAC  --- 0 ACK 38 [0 1 0 0] 
r 3.152309012 _1_ MAC  --- 0 ACK 38 [0 1 0 0] 
s 3.152359012 _1_ MAC  --- 83 cbr 81 [13a 0 1 800] ------- [1:0 0:0 32 0] [73] 0 0
r 3.152592973 _0_ MAC  --- 83 cbr 23 [13a 0 1 800] ------- [1:0 0:0 32 0] [73] 1 0
s 3.152602973 _0_ MAC  --- 0 ACK 38 [0 1 0 0] 
r 3.152907479 _1_ MAC  --- 0 ACK 38 [0 1 0 0] 
s 3.160478750 _2_ MAC  --- 84 cbr 1058 [13a 0 2 800] ------- [2:0 0:1 32 0] [10] 0 0
r 3.161423256 _0_ MAC  --- 84 cbr 1000 [13a 0 2 800] ------- [2:0 0:1 32 0] [10] 1 0
s 3.161433256 _0_ MAC  --- 0 ACK 38 [0 2 0 0] 
r 3.161737761 _2_ MAC  --- 0 ACK 38 [0 2 0 0] 
s 3.162367761 _2_ MAC  --- 85 cbr 81 [13a 0 2 800] ------- [2:0 0:1 32 0] [11] 0 0
r 3.162601721 _0_ MAC  --- 85 cbr 23 [13a 0 2 800] ------- [2:0 0:1 32 0] [11] 1 0
s 3.162611721 _0_ MAC  --- 0 ACK 38 [0 2 0 0] 
r 3.162916227 _2_ MAC  --- 0 ACK 38 [0 2 0 0] 
s 3.183138750 _1_ MAC  --- 86 cbr 1058 [13a 0 1 800] ------- [1:0 0:0 32 0] [74] 0 0
r 3.184083256 _0_ MAC  --- 86 cbr 1000 [13a 0 1 800] ------- [1:0 0:0 32 0] [74] 1 0
s 3.184093256 _0_ MAC  --- 0 ACK 38 [0 1 0 0] 
r 3.184397762 _1_ MAC  --- 0 ACK 38 [0 1 0 0] 
s 3.184967762 _1_ MAC  --- 87 cbr 81 [13a 0 1 800] ------- [1:0 0:0 32 0] [75] 0 0
r 3.185201723 _0_ MAC  --- 87 cbr 23 [13a 0 1 800] ------- [1:0 0:0 32 0] [75] 1 0
s 3.185211723 _0_ MAC  --- 0 ACK 38 [0 1 0 0] 
r 3.185516229 _1_ MAC  --- 0 ACK 38 [0 1 0 0] 
s 3.192127500 _2_ MAC  --- 88 cbr 1058 [13a 0 2 800] ------- [2:0 0:1 32 0] [12] 0 0
r 3.193072006 _0_ MAC  --- 88 cbr 1000 [13a 0 2 800] ------- [2:0 0:1 32 0] [12] 1 0
s 3.193082006 _0_ MAC  --- 0 ACK 38 [0 2 0 0] 
r 3.193386511 _2_ MAC  --- 0 ACK 38 [0 2 0 0] 
s 3.193956511 _2_ MAC  --- 89 cbr 81 [13a 0 2 800] ------- [2:0 0:1 32 0] [13] 0 0
r 3.194190471 _0_ MAC  --- 89 cbr 23 [13a 0 2 800] ------- [2:0 0:1 32 0] [13] 1 0
s 3.194200471 _0_ MAC  --- 0 ACK 38 [0 2 0 0] 
r 3.194504977 _2_ MAC  --- 0 ACK 38 [0 2 0 0] 
s 3.215067500 _1_ MAC  --- 90 cbr 1058 [13a 0 1 800] ------- [1:0 0:0 32 0] [76] 0 0
r 3.216012006 _0_ MAC  --- 90 cbr 1000 [13a 0 1 800] ------- [1:0 0:0 32 0] [76] 1 0
s 3.216022006 _0_ MAC  --- 0 ACK 38 [0 1 0 0] 
r 3.216326512 _1_ MAC  --- 0 ACK 38 [0 1 0 0] 
s 3.216376512 _1_ MAC  --- 91 cbr 81 [13a 0 1 800] ------- [1:0 0:0 32 0] [77] 0 0
r 3.216610473 _0_ MAC  --- 91 cbr 23 [13a 0 1 800] ------- [1:0 0:0 32 0] [77] 1 0
s 3.216620473 _0_ MAC  --- 0 ACK 38 [0 1 0 0] 
r 3.216924979 _1_ MAC  --- 0 ACK 38 [0 1 0 0] 
s 3.224356250 _2_ MAC  --- 92 cbr 1058 [13a 0 2 800] ------- [2:0 0:1 32 0] [14] 0 0
r 3.225300756 _0_ MAC  --- 92 cbr 1000 [13a 0 2 800] ------- [2:0 0:1 32 0] [14] 1 0
s 3.225310756 _0_ MAC  --- 0 ACK 38 [0 2 0 0] 
r 3.225615261 _2_ MAC  --- 0 ACK 38 [0 2 0 0] 
s 3.225905261 _2_ MAC  --- 93 cbr 81 [13a 0 2 800] ------- [2:0 0:1 32 0] [15] 0 0
r 3.226139221 _0_ MAC  --- 93 cbr 23 [13a 0 2 800] ------- [2:0 0:1 32 0] [15] 1 0
s 3.226149221 _0_ MAC  --- 0 ACK 38 [0 2 0 0] 
r 3.226453727 _2_ MAC  --- 0 ACK 38 [0 2 0 0] 
s 3.246976250 _1_ MAC  --- 94 cbr 1058 [13a 0 1 800] ------- [1:0 0:0 32 0] [78] 0 0
r 3.247920756 _0_ MAC  --- 94 cbr 1000 [13a 0 1 800] ------- [1:0 0:0 32 0] [78] 1 0
s 3.247930756 _0_ MAC  --- 0 ACK 38 [0 1 0 0] 
r 3.248235262 _1_ MAC  --- 0 ACK 38 [0 1 0 0] 
s 3.248645262 _1_ MAC  --- 95 cbr 81 [13a 0 1 800] ------- [1:0 0:0 32 0] [79] 0 0
r 3.248879223 _0_ MAC  --- 95 cbr 23 [13a 0 1 800] ------- [1:0 0:0 32 0] [79] 1 0
s 3.248889223 _0_ MAC  --- 0 ACK 38 [0 1 0 0] 
r 3.249193729 _1_ MAC  --- 0 ACK 38 [0 1 0 0] 
s 3.256325000 _2_ MAC  --- 96 cbr 1058 [13a 0 2 800] ------- [2:0 0:1 32 0] [16] 0 0
r 3.257269506 _0_ MAC  --- 96 cbr 1000 [13a 0 2 800] ------- [2:0 0:1 32 0] [16] 1 0
s 3.257279506 _0_ MAC  --- 0 ACK 38 [0 2 0 0] 
r 3.257584011 _2_ MAC  --- 0 ACK 38 [0 2 0 0] 
s 3.258234011 _2_ MAC  --- 97 cbr 81 [13a 0 2 800] ------- [2:0 0:1 32 0] [17] 0 0
r 3.258467971 _0_ MAC  --- 97 cbr 23 [13a 0 2 800] ------- [2:0 0:1 32 0] [17] 1 0
s 3.258477971 _0_ MAC  --- 0 ACK 38 [0 2 0 0] 
r 3.258782477 _2_ MAC  --- 0 ACK 38 [0 2 0 0] 
s 3.279365000 _1_ MAC  --- 98 cbr 1058 [13a 0 1 800] ------- [1:0 0:0 32 0] [80] 0 0
r 3.280309506 _0_ MAC  --- 98 cbr 1000 [13a 0 1 800] ------- [1:0 0:0 32 0] [80] 1 0
s 3.280319506 _0_ MAC  --- 0 ACK 38 [0 1 0 0] 
r 3.280624012 _1_ MAC  --- 0 ACK 38 [0 1 0 0] 
s 3.281214012 _1_ MAC  --- 99 cbr 81 [13a 0 1 800] ------- [1:0 0:0 32 0] [81] 0 0
r 3.281447973 _0_ MAC  --- 99 cbr 23 [13a 0 1 800] ------- [1:0 0:0 32 0] [81] 1 0
s 3.281457973 _0_ MAC  --- 0 ACK 38 [0 1 0 0] 
r 3.281762479 _1_ MAC  --- 0 ACK 38 [0 1 0 0] 
s 3.288273750 _2_ MAC  --- 100 cbr 1058 [13a 0 2 800] ------- [2:0 0:1 32 0] [18] 0 0
r 3.289218256 _0_ MAC  --- 100 cbr 1000 [13a 0 2 800] ------- [2:0 0:1 32 0] [18] 1 0
s 3.289228256 _0_ MAC  --- 0 ACK 38 [0 2 0 0] 
r 3.289532761 _2_ MAC  --- 0 ACK 38 [0 2 0 0] 
s 3.289942761 _2_ MAC  --- 101 cbr 81 [13a 0 2 800] ------- [2:0 0:1 32 0] [19] 0 0
r 3.290176721 _0_ MAC  --- 101 cbr 23 [13a 0 2 800] ------- [2:0 0:1 32 0] [19] 1 0
s 3.290186721 _0_ MAC  --- 0 ACK 38 [0 2 0 0] 
r 3.290491227 _2_ MAC  --- 0 ACK 38 [0 2 0 0] 
s 3.310873750 _1_ MAC  --- 102 cbr 1058 [13a 0 1 800] ------- [1:0 0:0 32 0] [82] 0 0
r 3.311818256 _0_ MAC  --- 102 cbr 1000 [13a 0 1 800] ------- [1:0 0:0 32 0] [82] 1 0
s 3.311828256 _0_ MAC  --- 0 ACK 38 [0 1 0 0] 
r 3.312132762 _1_ MAC  --- 0 ACK 38 [0 1 0 0] 
s 3.312742762 _1_ MAC  --- 103 cbr 81 [13a 0 1 800] ------- [1:0 0:0 32 0] [83] 0 0
r 3.312976723 _0_ MAC  --- 103 cbr 23 [13a 0 1 800] ------- [1:0 0:0 32 0] [83] 1 0
s 3.312986723 _0_ MAC  --- 0 ACK 38 [0 1 0 0] 
r 3.313291229 _1_ MAC  --- 0 ACK 38 [0 1 0 0] 
s 3.320102500 _2_ MAC  --- 104 cbr 1058 [13a 0 2 800] ------- [2:0 0:1 32 0] [20] 0 0
r 3.321047006 _0_ MAC  --- 104 cbr 1000 [13a 0 2 800] ------- [2:0 0:1 32 0] [20] 1 0
s 3.321057006 _0_ MAC  --- 0 ACK 38 [0 2 0 0] 