n -t * -s 0  -x 200 -y 360 -Z 0 -z 30  -v circle -c black
n -t * -s 1  -x 103.196 -y 243.02699999999999 -Z 0 -z 30  -v circle -c black
n -t * -s 2  -x 131.392 -y 495.291 -Z 0 -z 30  -v circle -c black
n -t * -s 3  -x 209.685 -y 208.71700000000001 -Z 0 -z 30  -v circle -c black
n -t * -s 4  -x 57.651299999999999 -y 415.88400000000001 -Z 0 -z 30  -v circle -c black
n -t * -s 5  -x 52.421300000000002 -y 320.267 -Z 0 -z 30  -v circle -c black
n -t * -s 6  -x 304.964 -y 248.47499999999999 -Z 0 -z 30  -v circle -c black
n -t * -s 7  -x 351.76799999999997 -y 353.56 -Z 0 -z 30  -v circle -c black
n -t * -s 8  -x 325.83499999999998 -y 448.596 -Z 0 -z 30  -v circle -c black
n -t * -s 9  -x 236.392 -y 507.02199999999999 -Z 0 -z 30  -v circle -c black
V -t * -v 1.0a5 -a 0
W -t * -x 600 -y 600
A -t * -n 1 -p 0 -o 0xffffffff -c 31 -a 1
A -t * -h 1 -m 2147483647 -s 0
n -t 0 -s 0 -S DLABEL -l "AP" -L ""
n -t 0 -s 1 -S DLABEL -l "N1" -L ""
n -t 0 -s 2 -S DLABEL -l "N2" -L ""
n -t 0 -s 3 -S DLABEL -l "N3" -L ""
n -t 0 -s 4 -S DLABEL -l "N4" -L ""
n -t 0 -s 5 -S DLABEL -l "N5" -L ""
n -t 0 -s 6 -S DLABEL -l "N6" -L ""
n -t 0 -s 7 -S DLABEL -l "N7" -L ""
n -t 0 -s 8 -S DLABEL -l "N8" -L ""
n -t 0 -s 9 -S DLABEL -l "N9" -L ""
m -t 0 -s 0 -n m1 -c green -h circle
m -t 0 -s 1 -n m1 -c red -h circle
m -t 0 -s 2 -n m1 -c yellow -h circle
m -t 0 -s 3 -n m1 -c blue -h circle
m -t 0 -s 4 -n m1 -c purple -h circle
m -t 0 -s 5 -n m1 -c pink -h circle
m -t 0 -s 6 -n m1 -c red -h circle
m -t 0 -s 7 -n m1 -c plum -h circle
m -t 0 -s 8 -n m1 -c yellow -h circle
m -t 0 -s 9 -n m1 -c grey -h circle
d -t 2.000000000 -s 1 -d -1 -p cbr -e 1000 -c 2 -a 0 -i 0 -k IFQ
+ -t 2.000515000 -s 1 -d -1 -p ARP -e 86 -c 2 -a 0 -i 0 -k MAC 
- -t 2.000515000 -s 1 -d -1 -p ARP -e 86 -c 2 -a 0 -i 0 -k MAC
h -t 2.000515000 -s 1 -d -1 -p ARP -e 86 -c 2 -a 0 -i 0 -k MAC
r -t 2.001203308 -s 5 -d -1 -p ARP -e 28 -c 2 -a 0 -i 0 -k MAC
r -t 2.001203373 -s 3 -d -1 -p ARP -e 28 -c 2 -a 0 -i 0 -k MAC
r -t 2.001203506 -s 0 -d -1 -p ARP -e 28 -c 2 -a 0 -i 0 -k MAC
r -t 2.001203596 -s 4 -d -1 -p ARP -e 28 -c 2 -a 0 -i 0 -k MAC
r -t 2.001203673 -s 6 -d -1 -p ARP -e 28 -c 2 -a 0 -i 0 -k MAC
+ -t 2.001293000 -s 1 -d -1 -p ARP -e 86 -c 2 -a 0 -i 0 -k MAC 
- -t 2.001293000 -s 1 -d -1 -p ARP -e 86 -c 2 -a 0 -i 0 -k MAC
h -t 2.001293000 -s 1 -d -1 -p ARP -e 86 -c 2 -a 0 -i 0 -k MAC
r -t 2.001981308 -s 5 -d -1 -p ARP -e 28 -c 2 -a 0 -i 0 -k MAC
r -t 2.001981373 -s 3 -d -1 -p ARP -e 28 -c 2 -a 0 -i 0 -k MAC
r -t 2.001981506 -s 0 -d -1 -p ARP -e 28 -c 2 -a 0 -i 0 -k MAC
r -t 2.001981596 -s 4 -d -1 -p ARP -e 28 -c 2 -a 0 -i 0 -k MAC
r -t 2.001981673 -s 6 -d -1 -p ARP -e 28 -c 2 -a 0 -i 0 -k MAC
+ -t 2.002571506 -s 0 -d -1 -p ARP -e 86 -c 2 -a 0 -i 0 -k MAC 
- -t 2.002571506 -s 0 -d -1 -p ARP -e 86 -c 2 -a 0 -i 0 -k MAC
h -t 2.002571506 -s 0 -d -1 -p ARP -e 86 -c 2 -a 0 -i 0 -k MAC
r -t 2.002809103 -s 1 -d -1 -p ARP -e 28 -c 2 -a 0 -i 0 -k MAC
+ -t 2.002819103 -s 1 -d -1 -p ACK -e 38 -c 2 -a 0 -i 0 -k MAC 
- -t 2.002819103 -s 1 -d -1 -p ACK -e 38 -c 2 -a 0 -i 0 -k MAC
h -t 2.002819103 -s 1 -d -1 -p ACK -e 38 -c 2 -a 0 -i 0 -k MAC
r -t 2.003123609 -s 0 -d -1 -p ACK -e 38 -c 2 -a 0 -i 0 -k MAC
+ -t 2.003173609 -s 0 -d -1 -p ARP -e 86 -c 2 -a 0 -i 0 -k MAC 
- -t 2.003173609 -s 0 -d -1 -p ARP -e 86 -c 2 -a 0 -i 0 -k MAC
h -t 2.003173609 -s 0 -d -1 -p ARP -e 86 -c 2 -a 0 -i 0 -k MAC
r -t 2.003411206 -s 1 -d -1 -p ARP -e 28 -c 2 -a 0 -i 0 -k MAC
+ -t 2.003421206 -s 1 -d -1 -p ACK -e 38 -c 2 -a 0 -i 0 -k MAC 
- -t 2.003421206 -s 1 -d -1 -p ACK -e 38 -c 2 -a 0 -i 0 -k MAC
h -t 2.003421206 -s 1 -d -1 -p ACK -e 38 -c 2 -a 0 -i 0 -k MAC
r -t 2.003725712 -s 0 -d -1 -p ACK -e 38 -c 2 -a 0 -i 0 -k MAC
+ -t 2.004095206 -s 1 -d -1 -p cbr -e 81 -c 2 -a 0 -i 1 -k MAC 
- -t 2.004095206 -s 1 -d -1 -p cbr -e 81 -c 2 -a 0 -i 1 -k MAC
h -t 2.004095206 -s 1 -d -1 -p cbr -e 81 -c 2 -a 0 -i 1 -k MAC
r -t 2.004329167 -s 0 -d -1 -p cbr -e 23 -c 2 -a 0 -i 1 -k MAC
+ -t 2.004339167 -s 0 -d -1 -p ACK -e 38 -c 2 -a 0 -i 0 -k MAC 
- -t 2.004339167 -s 0 -d -1 -p ACK -e 38 -c 2 -a 0 -i 0 -k MAC
h -t 2.004339167 -s 0 -d -1 -p ACK -e 38 -c 2 -a 0 -i 0 -k MAC
r -t 2.004643673 -s 1 -d -1 -p ACK -e 38 -c 2 -a 0 -i 0 -k MAC
+ -t 2.032283750 -s 1 -d -1 -p cbr -e 1058 -c 2 -a 0 -i 2 -k MAC 
- -t 2.032283750 -s 1 -d -1 -p cbr -e 1058 -c 2 -a 0 -i 2 -k MAC
h -t 2.032283750 -s 1 -d -1 -p cbr -e 1058 -c 2 -a 0 -i 2 -k MAC
r -t 2.033228256 -s 0 -d -1 -p cbr -e 1000 -c 2 -a 0 -i 2 -k MAC
+ -t 2.033238256 -s 0 -d -1 -p ACK -e 38 -c 2 -a 0 -i 0 -k MAC 
- -t 2.033238256 -s 0 -d -1 -p ACK -e 38 -c 2 -a 0 -i 0 -k MAC
h -t 2.033238256 -s 0 -d -1 -p ACK -e 38 -c 2 -a 0 -i 0 -k MAC
r -t 2.033542762 -s 1 -d -1 -p ACK -e 38 -c 2 -a 0 -i 0 -k MAC
+ -t 2.033952762 -s 1 -d -1 -p cbr -e 81 -c 2 -a 0 -i 3 -k MAC 
- -t 2.033952762 -s 1 -d -1 -p cbr -e 81 -c 2 -a 0 -i 3 -k MAC
h -t 2.033952762 -s 1 -d -1 -p cbr -e 81 -c 2 -a 0 -i 3 -k MAC
r -t 2.034186723 -s 0 -d -1 -p cbr -e 23 -c 2 -a 0 -i 3 -k MAC
+ -t 2.034196723 -s 0 -d -1 -p ACK -e 38 -c 2 -a 0 -i 0 -k MAC 
- -t 2.034196723 -s 0 -d -1 -p ACK -e 38 -c 2 -a 0 -i 0 -k MAC
h -t 2.034196723 -s 0 -d -1 -p ACK -e 38 -c 2 -a 0 -i 0 -k MAC
r -t 2.034501229 -s 1 -d -1 -p ACK -e 38 -c 2 -a 0 -i 0 -k MAC
+ -t 2.064252500 -s 1 -d -1 -p cbr -e 1058 -c 2 -a 0 -i 4 -k MAC 
- -t 2.064252500 -s 1 -d -1 -p cbr -e 1058 -c 2 -a 0 -i 4 -k MAC
h -t 2.064252500 -s 1 -d -1 -p cbr -e 1058 -c 2 -a 0 -i 4 -k MAC
r -t 2.065197006 -s 0 -d -1 -p cbr -e 1000 -c 2 -a 0 -i 4 -k MAC
+ -t 2.065207006 -s 0 -d -1 -p ACK -e 38 -c 2 -a 0 -i 0 -k MAC 
- -t 2.065207006 -s 0 -d -1 -p ACK -e 38 -c 2 -a 0 -i 0 -k MAC
h -t 2.065207006 -s 0 -d -1 -p ACK -e 38 -c 2 -a 0 -i 0 -k MAC
r -t 2.065511512 -s 1 -d -1 -p ACK -e 38 -c 2 -a 0 -i 0 -k MAC
+ -t 2.065601512 -s 1 -d -1 -p cbr -e 81 -c 2 -a 0 -i 5 -k MAC 
- -t 2.065601512 -s 1 -d -1 -p cbr -e 81 -c 2 -a 0 -i 5 -k MAC
h -t 2.065601512 -s 1 -d -1 -p cbr -e 81 -c 2 -a 0 -i 5 -k MAC
r -t 2.065835473 -s 0 -d -1 -p cbr -e 23 -c 2 -a 0 -i 5 -k MAC
+ -t 2.065845473 -s 0 -d -1 -p ACK -e 38 -c 2 -a 0 -i 0 -k MAC 
- -t 2.065845473 -s 0 -d -1 -p ACK -e 38 -c 2 -a 0 -i 0 -k MAC
h -t 2.065845473 -s 0 -d -1 -p ACK -e 38 -c 2 -a 0 -i 0 -k MAC
r -t 2.066149979 -s 1 -d -1 -p ACK -e 38 -c 2 -a 0 -i 0 -k MAC
+ -t 2.096141250 -s 1 -d -1 -p cbr -e 1058 -c 2 -a 0 -i 6 -k MAC 
- -t 2.096141250 -s 1 -d -1 -p cbr -e 1058 -c 2 -a 0 -i 6 -k MAC
h -t 2.096141250 -s 1 -d -1 -p cbr -e 1058 -c 2 -a 0 -i 6 -k MAC
r -t 2.097085756 -s 0 -d -1 -p cbr -e 1000 -c 2 -a 0 -i 6 -k MAC
+ -t 2.097095756 -s 0 -d -1 -p ACK -e 38 -c 2 -a 0 -i 0 -k MAC 
- -t 2.097095756 -s 0 -d -1 -p ACK -e 38 -c 2 -a 0 -i 0 -k MAC
h -t 2.097095756 -s 0 -d -1 -p ACK -e 38 -c 2 -a 0 -i 0 -k MAC
r -t 2.097400262 -s 1 -d -1 -p ACK -e 38 -c 2 -a 0 -i 0 -k MAC
+ -t 2.097810262 -s 1 -d -1 -p cbr -e 81 -c 2 -a 0 -i 7 -k MAC 
- -t 2.097810262 -s 1 -d -1 -p cbr -e 81 -c 2 -a 0 -i 7 -k MAC
h -t 2.097810262 -s 1 -d -1 -p cbr -e 81 -c 2 -a 0 -i 7 -k MAC
r -t 2.098044223 -s 0 -d -1 -p cbr -e 23 -c 2 -a 0 -i 7 -k MAC
+ -t 2.098054223 -s 0 -d -1 -p ACK -e 38 -c 2 -a 0 -i 0 -k MAC 
- -t 2.098054223 -s 0 -d -1 -p ACK -e 38 -c 2 -a 0 -i 0 -k MAC
h -t 2.098054223 -s 0 -d -1 -p ACK -e 38 -c 2 -a 0 -i 0 -k MAC
r -t 2.098358729 -s 1 -d -1 -p ACK -e 38 -c 2 -a 0 -i 0 -k MAC
+ -t 2.128110000 -s 1 -d -1 -p cbr -e 1058 -c 2 -a 0 -i 8 -k MAC 
- -t 2.128110000 -s 1 -d -1 -p cbr -e 1058 -c 2 -a 0 -i 8 -k MAC
h -t 2.128110000 -s 1 -d -1 -p cbr -e 1058 -c 2 -a 0 -i 8 -k MAC
r -t 2.129054506 -s 0 -d -1 -p cbr -e 1000 -c 2 -a 0 -i 8 -k MAC
+ -t 2.129064506 -s 0 -d -1 -p ACK -e 38 -c 2 -a 0 -i 0 -k MAC 
- -t 2.129064506 -s 0 -d -1 -p ACK -e 38 -c 2 -a 0 -i 0 -k MAC
h -t 2.129064506 -s 0 -d -1 -p ACK -e 38 -c 2 -a 0 -i 0 -k MAC
r -t 2.129369012 -s 1 -d -1 -p ACK -e 38 -c 2 -a 0 -i 0 -k MAC
+ -t 2.129899012 -s 1 -d -1 -p cbr -e 81 -c 2 -a 0 -i 9 -k MAC 
- -t 2.129899012 -s 1 -d -1 -p cbr -e 81 -c 2 -a 0 -i 9 -k MAC
h -t 2.129899012 -s 1 -d -1 -p cbr -e 81 -c 2 -a 0 -i 9 -k MAC
r -t 2.130132973 -s 0 -d -1 -p cbr -e 23 -c 2 -a 0 -i 9 -k MAC
+ -t 2.130142973 -s 0 -d -1 -p ACK -e 38 -c 2 -a 0 -i 0 -k MAC 
- -t 2.130142973 -s 0 -d -1 -p ACK -e 38 -c 2 -a 0 -i 0 -k MAC
h -t 2.130142973 -s 0 -d -1 -p ACK -e 38 -c 2 -a 0 -i 0 -k MAC
r -t 2.130447479 -s 1 -d -1 -p ACK -e 38 -c 2 -a 0 -i 0 -k MAC
+ -t 2.160238750 -s 1 -d -1 -p cbr -e 1058 -c 2 -a 0 -i 10 -k MAC 
- -t 2.160238750 -s 1 -d -1 -p cbr -e 1058 -c 2 -a 0 -i 10 -k MAC
h -t 2.160238750 -s 1 -d -1 -p cbr -e 1058 -c 2 -a 0 -i 10 -k MAC
r -t 2.161183256 -s 0 -d -1 -p cbr -e 1000 -c 2 -a 0 -i 10 -k MAC
+ -t 2.161193256 -s 0 -d -1 -p ACK -e 38 -c 2 -a 0 -i 0 -k MAC 
- -t 2.161193256 -s 0 -d -1 -p ACK -e 38 -c 2 -a 0 -i 0 -k MAC
h -t 2.161193256 -s 0 -d -1 -p ACK -e 38 -c 2 -a 0 -i 0 -k MAC
r -t 2.161497762 -s 1 -d -1 -p ACK -e 38 -c 2 -a 0 -i 0 -k MAC
+ -t 2.161747762 -s 1 -d -1 -p cbr -e 81 -c 2 -a 0 -i 11 -k MAC 
- -t 2.161747762 -s 1 -d -1 -p cbr -e 81 -c 2 -a 0 -i 11 -k MAC
h -t 2.161747762 -s 1 -d -1 -p cbr -e 81 -c 2 -a 0 -i 11 -k MAC
r -t 2.161981723 -s 0 -d -1 -p cbr -e 23 -c 2 -a 0 -i 11 -k MAC
+ -t 2.161991723 -s 0 -d -1 -p ACK -e 38 -c 2 -a 0 -i 0 -k MAC 
- -t 2.161991723 -s 0 -d -1 -p ACK -e 38 -c 2 -a 0 -i 0 -k MAC
h -t 2.161991723 -s 0 -d -1 -p ACK -e 38 -c 2 -a 0 -i 0 -k MAC
r -t 2.162296229 -s 1 -d -1 -p ACK -e 38 -c 2 -a 0 -i 0 -k MAC
+ -t 2.191907500 -s 1 -d -1 -p cbr -e 1058 -c 2 -a 0 -i 12 -k MAC 
- -t 2.191907500 -s 1 -d -1 -p cbr -e 1058 -c 2 -a 0 -i 12 -k MAC
h -t 2.191907500 -s 1 -d -1 -p cbr -e 1058 -c 2 -a 0 -i 12 -k MAC
r -t 2.192852006 -s 0 -d -1 -p cbr -e 1000 -c 2 -a 0 -i 12 -k MAC
+ -t 2.192862006 -s 0 -d -1 -p ACK -e 38 -c 2 -a 0 -i 0 -k MAC 
- -t 2.192862006 -s 0 -d -1 -p ACK -e 38 -c 2 -a 0 -i 0 -k MAC
h -t 2.192862006 -s 0 -d -1 -p ACK -e 38 -c 2 -a 0 -i 0 -k MAC
r -t 2.193166512 -s 1 -d -1 -p ACK -e 38 -c 2 -a 0 -i 0 -k MAC
+ -t 2.193456512 -s 1 -d -1 -p cbr -e 81 -c 2 -a 0 -i 13 -k MAC 
- -t 2.193456512 -s 1 -d -1 -p cbr -e 81 -c 2 -a 0 -i 13 -k MAC
h -t 2.193456512 -s 1 -d -1 -p cbr -e 81 -c 2 -a 0 -i 13 -k MAC
r -t 2.193690473 -s 0 -d -1 -p cbr -e 23 -c 2 -a 0 -i 13 -k MAC
+ -t 2.193700473 -s 0 -d -1 -p ACK -e 38 -c 2 -a 0 -i 0 -k MAC 
- -t 2.193700473 -s 0 -d -1 -p ACK -e 38 -c 2 -a 0 -i 0 -k MAC
h -t 2.193700473 -s 0 -d -1 -p ACK -e 38 -c 2 -a 0 -i 0 -k MAC
r -t 2.194004979 -s 1 -d -1 -p ACK -e 38 -c 2 -a 0 -i 0 -k MAC
+ -t 2.224036250 -s 1 -d -1 -p cbr -e 1058 -c 2 -a 0 -i 14 -k MAC 
- -t 2.224036250 -s 1 -d -1 -p cbr -e 1058 -c 2 -a 0 -i 14 -k MAC
h -t 2.224036250 -s 1 -d -1 -p cbr -e 1058 -c 2 -a 0 -i 14 -k MAC
r -t 2.224980756 -s 0 -d -1 -p cbr -e 1000 -c 2 -a 0 -i 14 -k MAC
+ -t 2.224990756 -s 0 -d -1 -p ACK -e 38 -c 2 -a 0 -i 0 -k MAC 
- -t 2.224990756 -s 0 -d -1 -p ACK -e 38 -c 2 -a 0 -i 0 -k MAC
h -t 2.224990756 -s 0 -d -1 -p ACK -e 38 -c 2 -a 0 -i 0 -k MAC
r -t 2.225295262 -s 1 -d -1 -p ACK -e 38 -c 2 -a 0 -i 0 -k MAC
+ -t 2.225925262 -s 1 -d -1 -p cbr -e 81 -c 2 -a 0 -i 15 -k MAC 
- -t 2.225925262 -s 1 -d -1 -p cbr -e 81 -c 2 -a 0 -i 15 -k MAC
h -t 2.225925262 -s 1 -d -1 -p cbr -e 81 -c 2 -a 0 -i 15 -k MAC
r -t 2.226159223 -s 0 -d -1 -p cbr -e 23 -c 2 -a 0 -i 15 -k MAC
+ -t 2.226169223 -s 0 -d -1 -p ACK -e 38 -c 2 -a 0 -i 0 -k MAC 
- -t 2.226169223 -s 0 -d -1 -p ACK -e 38 -c 2 -a 0 -i 0 -k MAC
h -t 2.226169223 -s 0 -d -1 -p ACK -e 38 -c 2 -a 0 -i 0 -k MAC
r -t 2.226473729 -s 1 -d -1 -p ACK -e 38 -c 2 -a 0 -i 0 -k MAC
+ -t 2.256365000 -s 1 -d -1 -p cbr -e 1058 -c 2 -a 0 -i 16 -k MAC 
- -t 2.256365000 -s 1 -d -1 -p cbr -e 1058 -c 2 -a 0 -i 16 -k MAC
h -t 2.256365000 -s 1 -d -1 -p cbr -e 1058 -c 2 -a 0 -i 16 -k MAC
r -t 2.257309506 -s 0 -d -1 -p cbr -e 1000 -c 2 -a 0 -i 16 -k MAC
+ -t 2.257319506 -s 0 -d -1 -p ACK -e 38 -c 2 -a 0 -i 0 -k MAC 
- -t 2.257319506 -s 0 -d -1 -p ACK -e 38 -c 2 -a 0 -i 0 -k MAC
h -t 2.257319506 -s 0 -d -1 -p ACK -e 38 -c 2 -a 0 -i 0 -k MAC
r -t 2.257624012 -s 1 -d -1 -p ACK -e 38 -c 2 -a 0 -i 0 -k MAC
+ -t 2.258034012 -s 1 -d -1 -p cbr -e 81 -c 2 -a 0 -i 17 -k MAC 
- -t 2.258034012 -s 1 -d -1 -p cbr -e 81 -c 2 -a 0 -i 17 -k MAC
h -t 2.258034012 -s 1 -d -1 -p cbr -e 81 -c 2 -a 0 -i 17 -k MAC
r -t 2.258267973 -s 0 -d -1 -p cbr -e 23 -c 2 -a 0 -i 17 -k MAC
+ -t 2.258277973 -s 0 -d -1 -p ACK -e 38 -c 2 -a 0 -i 0 -k MAC 
- -t 2.258277973 -s 0 -d -1 -p ACK -e 38 -c 2 -a 0 -i 0 -k MAC
h -t 2.258277973 -s 0 -d -1 -p ACK -e 38 -c 2 -a 0 -i 0 -k MAC
r -t 2.258582479 -s 1 -d -1 -p ACK -e 38 -c 2 -a 0 -i 0 -k MAC
+ -t 2.288093750 -s 1 -d -1 -p cbr -e 1058 -c 2 -a 0 -i 18 -k MAC 
- -t 2.288093750 -s 1 -d -1 -p cbr -e 1058 -c 2 -a 0 -i 18 -k MAC
h -t 2.288093750 -s 1 -d -1 -p cbr -e 1058 -c 2 -a 0 -i 18 -k MAC
r -t 2.289038256 -s 0 -d -1 -p cbr -e 1000 -c 2 -a 0 -i 18 -k MAC
+ -t 2.289048256 -s 0 -d -1 -p ACK -e 38 -c 2 -a 0 -i 0 -k MAC 
- -t 2.289048256 -s 0 -d -1 -p ACK -e 38 -c 2 -a 0 -i 0 -k MAC
h -t 2.289048256 -s 0 -d -1 -p ACK -e 38 -c 2 -a 0 -i 0 -k MAC
r -t 2.289352762 -s 1 -d -1 -p ACK -e 38 -c 2 -a 0 -i 0 -k MAC
+ -t 2.289762762 -s 1 -d -1 -p cbr -e 81 -c 2 -a 0 -i 19 -k MAC 
- -t 2.289762762 -s 1 -d -1 -p cbr -e 81 -c 2 -a 0 -i 19 -k MAC
h -t 2.289762762 -s 1 -d -1 -p cbr -e 81 -c 2 -a 0 -i 19 -k MAC
r -t 2.289996723 -s 0 -d -1 -p cbr -e 23 -c 2 -a 0 -i 19 -k MAC
+ -t 2.290006723 -s 0 -d -1 -p ACK -e 38 -c 2 -a 0 -i 0 -k MAC 
- -t 2.290006723 -s 0 -d -1 -p ACK -e 38 -c 2 -a 0 -i 0 -k MAC
h -t 2.290006723 -s 0 -d -1 -p ACK -e 38 -c 2 -a 0 -i 0 -k MAC
r -t 2.290311229 -s 1 -d -1 -p ACK -e 38 -c 2 -a 0 -i 0 -k MAC
+ -t 2.319842500 -s 1 -d -1 -p cbr -e 1058 -c 2 -a 0 -i 20 -k MAC 
- -t 2.319842500 -s 1 -d -1 -p cbr -e 1058 -c 2 -a 0 -i 20 -k MAC
h -t 2.319842500 -s 1 -d -1 -p cbr -e 1058 -c 2 -a 0 -i 20 -k MAC
r -t 2.320787006 -s 0 -d -1 -p cbr -e 1000 -c 2 -a 0 -i 20 -k MAC
+ -t 2.320797006 -s 0 -d -1 -p ACK -e 38 -c 2 -a 0 -i 0 -k MAC 
- -t 2.320797006 -s 0 -d -1 -p ACK -e 38 -c 2 -a 0 -i 0 -k MAC
h -t 2.320797006 -s 0 -d -1 -p ACK -e 38 -c 2 -a 0 -i 0 -k MAC
r -t 2.321101512 -s 1 -d -1 -p ACK -e 38 -c 2 -a 0 -i 0 -k MAC
+ -t 2.321431512 -s 1 -d -1 -p cbr -e 81 -c 2 -a 0 -i 21 -k MAC 
- -t 2.321431512 -s 1 -d -1 -p cbr -e 81 -c 2 -a 0 -i 21 -k MAC
h -t 2.321431512 -s 1 -d -1 -p cbr -e 81 -c 2 -a 0 -i 21 -k MAC
r -t 2.321665473 -s 0 -d -1 -p cbr -e 23 -c 2 -a 0 -i 21 -k MAC
+ -t 2.321675473 -s 0 -d -1 -p ACK -e 38 -c 2 -a 0 -i 0 -k MAC 
- -t 2.321675473 -s 0 -d -1 -p ACK -e 38 -c 2 -a 0 -i 0 -k MAC
h -t 2.321675473 -s 0 -d -1 -p ACK -e 38 -c 2 -a 0 -i 0 -k MAC
r -t 2.321979979 -s 1 -d -1 -p ACK -e 38 -c 2 -a 0 -i 0 -k MAC
+ -t 2.351831250 -s 1 -d -1 -p cbr -e 1058 -c 2 -a 0 -i 22 -k MAC 
- -t 2.351831250 -s 1 -d -1 -p cbr -e 1058 -c 2 -a 0 -i 22 -k MAC
h -t 2.351831250 -s 1 -d -1 -p cbr -e 1058 -c 2 -a 0 -i 22 -k MAC
r -t 2.352775756 -s 0 -d -1 -p cbr -e 1000 -c 2 -a 0 -i 22 -k MAC
+ -t 2.352785756 -s 0 -d -1 -p ACK -e 38 -c 2 -a 0 -i 0 -k MAC 
- -t 2.352785756 -s 0 -d -1 -p ACK -e 38 -c 2 -a 0 -i 0 -k MAC
h -t 2.352785756 -s 0 -d -1 -p ACK -e 38 -c 2 -a 0 -i 0 -k MAC
r -t 2.353090262 -s 1 -d -1 -p ACK -e 38 -c 2 -a 0 -i 0 -k MAC
+ -t 2.353660262 -s 1 -d -1 -p cbr -e 81 -c 2 -a 0 -i 23 -k MAC 
- -t 2.353660262 -s 1 -d -1 -p cbr -e 81 -c 2 -a 0 -i 23 -k MAC
h -t 2.353660262 -s 1 -d -1 -p cbr -e 81 -c 2 -a 0 -i 23 -k MAC
r -t 2.353894223 -s 0 -d -1 -p cbr -e 23 -c 2 -a 0 -i 23 -k MAC
+ -t 2.353904223 -s 0 -d -1 -p ACK -e 38 -c 2 -a 0 -i 0 -k MAC 
- -t 2.353904223 -s 0 -d -1 -p ACK -e 38 -c 2 -a 0 -i 0 -k MAC
h -t 2.353904223 -s 0 -d -1 -p ACK -e 38 -c 2 -a 0 -i 0 -k MAC
r -t 2.354208729 -s 1 -d -1 -p ACK -e 38 -c 2 -a 0 -i 0 -k MAC
+ -t 2.383900000 -s 1 -d -1 -p cbr -e 1058 -c 2 -a 0 -i 24 -k MAC 
- -t 2.383900000 -s 1 -d -1 -p cbr -e 1058 -c 2 -a 0 -i 24 -k MAC
h -t 2.383900000 -s 1 -d -1 -p cbr -e 1058 -c 2 -a 0 -i 24 -k MAC
r -t 2.384844506 -s 0 -d -1 -p cbr -e 1000 -c 2 -a 0 -i 24 -k MAC
+ -t 2.384854506 -s 0 -d -1 -p ACK -e 38 -c 2 -a 0 -i 0 -k MAC 
- -t 2.384854506 -s 0 -d -1 -p ACK -e 38 -c 2 -a 0 -i 0 -k MAC
h -t 2.384854506 -s 0 -d -1 -p ACK -e 38 -c 2 -a 0 -i 0 -k MAC
r -t 2.385159012 -s 1 -d -1 -p ACK -e 38 -c 2 -a 0 -i 0 -k MAC
+ -t 2.385789012 -s 1 -d -1 -p cbr -e 81 -c 2 -a 0 -i 25 -k MAC 
- -t 2.385789012 -s 1 -d -1 -p cbr -e 81 -c 2 -a 0 -i 25 -k MAC
h -t 2.385789012 -s 1 -d -1 -p cbr -e 81 -c 2 -a 0 -i 25 -k MAC
r -t 2.386022973 -s 0 -d -1 -p cbr -e 23 -c 2 -a 0 -i 25 -k MAC
+ -t 2.386032973 -s 0 -d -1 -p ACK -e 38 -c 2 -a 0 -i 0 -k MAC 
- -t 2.386032973 -s 0 -d -1 -p ACK -e 38 -c 2 -a 0 -i 0 -k MAC
h -t 2.386032973 -s 0 -d -1 -p ACK -e 38 -c 2 -a 0 -i 0 -k MAC
r -t 2.386337479 -s 1 -d -1 -p ACK -e 38 -c 2 -a 0 -i 0 -k MAC
+ -t 2.415788750 -s 1 -d -1 -p cbr -e 1058 -c 2 -a 0 -i 26 -k MAC 
- -t 2.415788750 -s 1 -d -1 -p cbr -e 1058 -c 2 -a 0 -i 26 -k MAC
h -t 2.415788750 -s 1 -d -1 -p cbr -e 1058 -c 2 -a 0 -i 26 -k MAC
r -t 2.416733256 -s 0 -d -1 -p cbr -e 1000 -c 2 -a 0 -i 26 -k MAC
+ -t 2.416743256 -s 0 -d -1 -p ACK -e 38 -c 2 -a 0 -i 0 -k MAC 
- -t 2.416743256 -s 0 -d -1 -p ACK -e 38 -c 2 -a 0 -i 0 -k MAC
h -t 2.416743256 -s 0 -d -1 -p ACK -e 38 -c 2 -a 0 -i 0 -k MAC
r -t 2.417047762 -s 1 -d -1 -p ACK -e 38 -c 2 -a 0 -i 0 -k MAC
+ -t 2.417437762 -s 1 -d -1 -p cbr -e 81 -c 2 -a 0 -i 27 -k MAC 
- -t 2.417437762 -s 1 -d -1 -p cbr -e 81 -c 2 -a 0 -i 27 -k MAC
h -t 2.417437762 -s 1 -d -1 -p cbr -e 81 -c 2 -a 0 -i 27 -k MAC
r -t 2.417671723 -s 0 -d -1 -p cbr -e 23 -c 2 -a 0 -i 27 -k MAC
+ -t 2.417681723 -s 0 -d -1 -p ACK -e 38 -c 2 -a 0 -i 0 -k MAC 
- -t 2.417681723 -s 0 -d -1 -p ACK -e 38 -c 2 -a 0 -i 0 -k MAC
h -t 2.417681723 -s 0 -d -1 -p ACK -e 38 -c 2 -a 0 -i 0 -k MAC
r -t 2.417986229 -s 1 -d -1 -p ACK -e 38 -c 2 -a 0 -i 0 -k MAC
+ -t 2.447917500 -s 1 -d -1 -p cbr -e 1058 -c 2 -a 0 -i 28 -k MAC 
- -t 2.447917500 -s 1 -d -1 -p cbr -e 1058 -c 2 -a 0 -i 28 -k MAC
h -t 2.447917500 -s 1 -d -1 -p cbr -e 1058 -c 2 -a 0 -i 28 -k MAC
r -t 2.448862006 -s 0 -d -1 -p cbr -e 1000 -c 2 -a 0 -i 28 -k MAC
+ -t 2.448872006 -s 0 -d -1 -p ACK -e 38 -c 2 -a 0 -i 0 -k MAC 
- -t 2.448872006 -s 0 -d -1 -p ACK -e 38 -c 2 -a 0 -i 0 -k MAC
h -t 2.448872006 -s 0 -d -1 -p ACK -e 38 -c 2 -a 0 -i 0 -k MAC
r -t 2.449176512 -s 1 -d -1 -p ACK -e 38 -c 2 -a 0 -i 0 -k MAC
+ -t 2.449406512 -s 1 -d -1 -p cbr -e 81 -c 2 -a 0 -i 29 -k MAC 
- -t 2.449406512 -s 1 -d -1 -p cbr -e 81 -c 2 -a 0 -i 29 -k MAC
h -t 2.449406512 -s 1 -d -1 -p cbr -e 81 -c 2 -a 0 -i 29 -k MAC
r -t 2.449640473 -s 0 -d -1 -p cbr -e 23 -c 2 -a 0 -i 29 -k MAC
+ -t 2.449650473 -s 0 -d -1 -p ACK -e 38 -c 2 -a 0 -i 0 -k MAC 
- -t 2.449650473 -s 0 -d -1 -p ACK -e 38 -c 2 -a 0 -i 0 -k MAC
h -t 2.449650473 -s 0 -d -1 -p ACK -e 38 -c 2 -a 0 -i 0 -k MAC
r -t 2.449954979 -s 1 -d -1 -p ACK -e 38 -c 2 -a 0 -i 0 -k MAC
+ -t 2.480086250 -s 1 -d -1 -p cbr -e 1058 -c 2 -a 0 -i 30 -k MAC 
- -t 2.480086250 -s 1 -d -1 -p cbr -e 1058 -c 2 -a 0 -i 30 -k MAC
h -t 2.480086250 -s 1 -d -1 -p cbr -e 1058 -c 2 -a 0 -i 30 -k MAC
r -t 2.481030756 -s 0 -d -1 -p cbr -e 1000 -c 2 -a 0 -i 30 -k MAC
+ -t 2.481040756 -s 0 -d -1 -p ACK -e 38 -c 2 -a 0 -i 0 -k MAC 
- -t 2.481040756 -s 0 -d -1 -p ACK -e 38 -c 2 -a 0 -i 0 -k MAC
h -t 2.481040756 -s 0 -d -1 -p ACK -e 38 -c 2 -a 0 -i 0 -k MAC
r -t 2.481345262 -s 1 -d -1 -p ACK -e 38 -c 2 -a 0 -i 0 -k MAC
+ -t 2.481395262 -s 1 -d -1 -p cbr -e 81 -c 2 -a 0 -i 31 -k MAC 
- -t 2.481395262 -s 1 -d -1 -p cbr -e 81 -c 2 -a 0 -i 31 -k MAC
h -t 2.481395262 -s 1 -d -1 -p cbr -e 81 -c 2 -a 0 -i 31 -k MAC
r -t 2.481629223 -s 0 -d -1 -p cbr -e 23 -c 2 -a 0 -i 31 -k MAC
+ -t 2.481639223 -s 0 -d -1 -p ACK -e 38 -c 2 -a 0 -i 0 -k MAC 
- -t 2.481639223 -s 0 -d -1 -p ACK -e 38 -c 2 -a 0 -i 0 -k MAC
h -t 2.481639223 -s 0 -d -1 -p ACK -e 38 -c 2 -a 0 -i 0 -k MAC
r -t 2.481943729 -s 1 -d -1 -p ACK -e 38 -c 2 -a 0 -i 0 -k MAC
+ -t 2.511895000 -s 1 -d -1 -p cbr -e 1058 -c 2 -a 0 -i 32 -k MAC 
- -t 2.511895000 -s 1 -d -1 -p cbr -e 1058 -c 2 -a 0 -i 32 -k MAC
h -t 2.511895000 -s 1 -d -1 -p cbr -e 1058 -c 2 -a 0 -i 32 -k MAC
r -t 2.512839506 -s 0 -d -1 -p cbr -e 1000 -c 2 -a 0 -i 32 -k MAC
+ -t 2.512849506 -s 0 -d -1 -p ACK -e 38 -c 2 -a 0 -i 0 -k MAC 
- -t 2.512849506 -s 0 -d -1 -p ACK -e 38 -c 2 -a 0 -i 0 -k MAC
h -t 2.512849506 -s 0 -d -1 -p ACK -e 38 -c 2 -a 0 -i 0 -k MAC
r -t 2.513154012 -s 1 -d -1 -p ACK -e 38 -c 2 -a 0 -i 0 -k MAC
+ -t 2.513364012 -s 1 -d -1 -p cbr -e 81 -c 2 -a 0 -i 33 -k MAC 
- -t 2.513364012 -s 1 -d -1 -p cbr -e 81 -c 2 -a 0 -i 33 -k MAC
h -t 2.513364012 -s 1 -d -1 -p cbr -e 81 -c 2 -a 0 -i 33 -k MAC
r -t 2.513597973 -s 0 -d -1 -p cbr -e 23 -c 2 -a 0 -i 33 -k MAC
+ -t 2.513607973 -s 0 -d -1 -p ACK -e 38 -c 2 -a 0 -i 0 -k MAC 
- -t 2.513607973 -s 0 -d -1 -p ACK -e 38 -c 2 -a 0 -i 0 -k MAC
h -t 2.513607973 -s 0 -d -1 -p ACK -e 38 -c 2 -a 0 -i 0 -k MAC
r -t 2.513912479 -s 1 -d -1 -p ACK -e 38 -c 2 -a 0 -i 0 -k MAC
+ -t 2.543623750 -s 1 -d -1 -p cbr -e 1058 -c 2 -a 0 -i 34 -k MAC 
- -t 2.543623750 -s 1 -d -1 -p cbr -e 1058 -c 2 -a 0 -i 34 -k MAC
h -t 2.543623750 -s 1 -d -1 -p cbr -e 1058 -c 2 -a 0 -i 34 -k MAC
r -t 2.544568256 -s 0 -d -1 -p cbr -e 1000 -c 2 -a 0 -i 34 -k MAC
+ -t 2.544578256 -s 0 -d -1 -p ACK -e 38 -c 2 -a 0 -i 0 -k MAC 
- -t 2.544578256 -s 0 -d -1 -p ACK -e 38 -c 2 -a 0 -i 0 -k MAC
h -t 2.544578256 -s 0 -d -1 -p ACK -e 38 -c 2 -a 0 -i 0 -k MAC
r -t 2.544882762 -s 1 -d -1 -p ACK -e 38 -c 2 -a 0 -i 0 -k MAC
+ -t 2.545232762 -s 1 -d -1 -p cbr -e 81 -c 2 -a 0 -i 35 -k MAC 
- -t 2.545232762 -s 1 -d -1 -p cbr -e 81 -c 2 -a 0 -i 35 -k MAC
h -t 2.545232762 -s 1 -d -1 -p cbr -e 81 -c 2 -a 0 -i 35 -k MAC
r -t 2.545466723 -s 0 -d -1 -p cbr -e 23 -c 2 -a 0 -i 35 -k MAC
+ -t 2.545476723 -s 0 -d -1 -p ACK -e 38 -c 2 -a 0 -i 0 -k MAC 
- -t 2.545476723 -s 0 -d -1 -p ACK -e 38 -c 2 -a 0 -i 0 -k MAC
h -t 2.545476723 -s 0 -d -1 -p ACK -e 38 -c 2 -a 0 -i 0 -k MAC
r -t 2.545781229 -s 1 -d -1 -p ACK -e 38 -c 2 -a 0 -i 0 -k MAC
+ -t 2.575752500 -s 1 -d -1 -p cbr -e 1058 -c 2 -a 0 -i 36 -k MAC 
- -t 2.575752500 -s 1 -d -1 -p cbr -e 1058 -c 2 -a 0 -i 36 -k MAC
h -t 2.575752500 -s 1 -d -1 -p cbr -e 1058 -c 2 -a 0 -i 36 -k MAC
r -t 2.576697006 -s 0 -d -1 -p cbr -e 1000 -c 2 -a 0 -i 36 -k MAC
+ -t 2.576707006 -s 0 -d -1 -p ACK -e 38 -c 2 -a 0 -i 0 -k MAC 
- -t 2.576707006 -s 0 -d -1 -p ACK -e 38 -c 2 -a 0 -i 0 -k MAC
h -t 2.576707006 -s 0 -d -1 -p ACK -e 38 -c 2 -a 0 -i 0 -k MAC
r -t 2.577011512 -s 1 -d -1 -p ACK -e 38 -c 2 -a 0 -i 0 -k MAC
+ -t 2.577361512 -s 1 -d -1 -p cbr -e 81 -c 2 -a 0 -i 37 -k MAC 
- -t 2.577361512 -s 1 -d -1 -p cbr -e 81 -c 2 -a 0 -i 37 -k MAC
h -t 2.577361512 -s 1 -d -1 -p cbr -e 81 -c 2 -a 0 -i 37 -k MAC
r -t 2.577595473 -s 0 -d -1 -p cbr -e 23 -c 2 -a 0 -i 37 -k MAC
+ -t 2.577605473 -s 0 -d -1 -p ACK -e 38 -c 2 -a 0 -i 0 -k MAC 
- -t 2.577605473 -s 0 -d -1 -p ACK -e 38 -c 2 -a 0 -i 0 -k MAC
h -t 2.577605473 -s 0 -d -1 -p ACK -e 38 -c 2 -a 0 -i 0 -k MAC
r -t 2.577909979 -s 1 -d -1 -p ACK -e 38 -c 2 -a 0 -i 0 -k MAC
+ -t 2.607501250 -s 1 -d -1 -p cbr -e 1058 -c 2 -a 0 -i 38 -k MAC 
- -t 2.607501250 -s 1 -d -1 -p cbr -e 1058 -c 2 -a 0 -i 38 -k MAC
h -t 2.607501250 -s 1 -d -1 -p cbr -e 1058 -c 2 -a 0 -i 38 -k MAC
r -t 2.608445756 -s 0 -d -1 -p cbr -e 1000 -c 2 -a 0 -i 38 -k MAC
+ -t 2.608455756 -s 0 -d -1 -p ACK -e 38 -c 2 -a 0 -i 0 -k MAC 
- -t 2.608455756 -s 0 -d -1 -p ACK -e 38 -c 2 -a 0 -i 0 -k MAC
h -t 2.608455756 -s 0 -d -1 -p ACK -e 38 -c 2 -a 0 -i 0 -k MAC
r -t 2.608760262 -s 1 -d -1 -p ACK -e 38 -c 2 -a 0 -i 0 -k MAC
+ -t 2.609290262 -s 1 -d -1 -p cbr -e 81 -c 2 -a 0 -i 39 -k MAC 
- -t 2.609290262 -s 1 -d -1 -p cbr -e 81 -c 2 -a 0 -i 39 -k MAC
h -t 2.609290262 -s 1 -d -1 -p cbr -e 81 -c 2 -a 0 -i 39 -k MAC
r -t 2.609524223 -s 0 -d -1 -p cbr -e 23 -c 2 -a 0 -i 39 -k MAC
+ -t 2.609534223 -s 0 -d -1 -p ACK -e 38 -c 2 -a 0 -i 0 -k MAC 
- -t 2.609534223 -s 0 -d -1 -p ACK -e 38 -c 2 -a 0 -i 0 -k MAC
h -t 2.609534223 -s 0 -d -1 -p ACK -e 38 -c 2 -a 0 -i 0 -k MAC
r -t 2.609838729 -s 1 -d -1 -p ACK -e 38 -c 2 -a 0 -i 0 -k MAC
+ -t 2.639570000 -s 1 -d -1 -p cbr -e 1058 -c 2 -a 0 -i 40 -k MAC 
- -t 2.639570000 -s 1 -d -1 -p cbr -e 1058 -c 2 -a 0 -i 40 -k MAC
h -t 2.639570000 -s 1 -d -1 -p cbr -e 1058 -c 2 -a 0 -i 40 -k MAC
r -t 2.640514506 -s 0 -d -1 -p cbr -e 1000 -c 2 -a 0 -i 40 -k MAC
+ -t 2.640524506 -s 0 -d -1 -p ACK -e 38 -c 2 -a 0 -i 0 -k MAC 
- -t 2.640524506 -s 0 -d -1 -p ACK -e 38 -c 2 -a 0 -i 0 -k MAC
h -t 2.640524506 -s 0 -d -1 -p ACK -e 38 -c 2 -a 0 -i 0 -k MAC
r -t 2.640829012 -s 1 -d -1 -p ACK -e 38 -c 2 -a 0 -i 0 -k MAC
+ -t 2.641179012 -s 1 -d -1 -p cbr -e 81 -c 2 -a 0 -i 41 -k MAC 
- -t 2.641179012 -s 1 -d -1 -p cbr -e 81 -c 2 -a 0 -i 41 -k MAC
h -t 2.641179012 -s 1 -d -1 -p cbr -e 81 -c 2 -a 0 -i 41 -k MAC
r -t 2.641412973 -s 0 -d -1 -p cbr -e 23 -c 2 -a 0 -i 41 -k MAC
+ -t 2.641422973 -s 0 -d -1 -p ACK -e 38 -c 2 -a 0 -i 0 -k MAC 
- -t 2.641422973 -s 0 -d -1 -p ACK -e 38 -c 2 -a 0 -i 0 -k MAC
h -t 2.641422973 -s 0 -d -1 -p ACK -e 38 -c 2 -a 0 -i 0 -k MAC
r -t 2.641727479 -s 1 -d -1 -p ACK -e 38 -c 2 -a 0 -i 0 -k MAC
+ -t 2.671878750 -s 1 -d -1 -p cbr -e 1058 -c 2 -a 0 -i 42 -k MAC 
- -t 2.671878750 -s 1 -d -1 -p cbr -e 1058 -c 2 -a 0 -i 42 -k MAC
h -t 2.671878750 -s 1 -d -1 -p cbr -e 1058 -c 2 -a 0 -i 42 -k MAC
r -t 2.672823256 -s 0 -d -1 -p cbr -e 1000 -c 2 -a 0 -i 42 -k MAC
+ -t 2.672833256 -s 0 -d -1 -p ACK -e 38 -c 2 -a 0 -i 0 -k MAC 
- -t 2.672833256 -s 0 -d -1 -p ACK -e 38 -c 2 -a 0 -i 0 -k MAC
h -t 2.672833256 -s 0 -d -1 -p ACK -e 38 -c 2 -a 0 -i 0 -k MAC
r -t 2.673137762 -s 1 -d -1 -p ACK -e 38 -c 2 -a 0 -i 0 -k MAC
+ -t 2.673307762 -s 1 -d -1 -p cbr -e 81 -c 2 -a 0 -i 43 -k MAC 
- -t 2.673307762 -s 1 -d -1 -p cbr -e 81 -c 2 -a 0 -i 43 -k MAC
h -t 2.673307762 -s 1 -d -1 -p cbr -e 81 -c 2 -a 0 -i 43 -k MAC
r -t 2.673541723 -s 0 -d -1 -p cbr -e 23 -c 2 -a 0 -i 43 -k MAC
+ -t 2.673551723 -s 0 -d -1 -p ACK -e 38 -c 2 -a 0 -i 0 -k MAC 
- -t 2.673551723 -s 0 -d -1 -p ACK -e 38 -c 2 -a 0 -i 0 -k MAC
h -t 2.673551723 -s 0 -d -1 -p ACK -e 38 -c 2 -a 0 -i 0 -k MAC
r -t 2.673856229 -s 1 -d -1 -p ACK -e 38 -c 2 -a 0 -i 0 -k MAC
+ -t 2.703487500 -s 1 -d -1 -p cbr -e 1058 -c 2 -a 0 -i 44 -k MAC 
- -t 2.703487500 -s 1 -d -1 -p cbr -e 1058 -c 2 -a 0 -i 44 -k MAC
h -t 2.703487500 -s 1 -d -1 -p cbr -e 1058 -c 2 -a 0 -i 44 -k MAC
r -t 2.704432006 -s 0 -d -1 -p cbr -e 1000 -c 2 -a 0 -i 44 -k MAC
+ -t 2.704442006 -s 0 -d -1 -p ACK -e 38 -c 2 -a 0 -i 0 -k MAC 
- -t 2.704442006 -s 0 -d -1 -p ACK -e 38 -c 2 -a 0 -i 0 -k MAC
h -t 2.704442006 -s 0 -d -1 -p ACK -e 38 -c 2 -a 0 -i 0 -k MAC
r -t 2.704746512 -s 1 -d -1 -p ACK -e 38 -c 2 -a 0 -i 0 -k MAC
+ -t 2.704876512 -s 1 -d -1 -p cbr -e 81 -c 2 -a 0 -i 45 -k MAC 
- -t 2.704876512 -s 1 -d -1 -p cbr -e 81 -c 2 -a 0 -i 45 -k MAC
h -t 2.704876512 -s 1 -d -1 -p cbr -e 81 -c 2 -a 0 -i 45 -k MAC
r -t 2.705110473 -s 0 -d -1 -p cbr -e 23 -c 2 -a 0 -i 45 -k MAC
+ -t 2.705120473 -s 0 -d -1 -p ACK -e 38 -c 2 -a 0 -i 0 -k MAC 
- -t 2.705120473 -s 0 -d -1 -p ACK -e 38 -c 2 -a 0 -i 0 -k MAC
h -t 2.705120473 -s 0 -d -1 -p ACK -e 38 -c 2 -a 0 -i 0 -k MAC
r -t 2.705424979 -s 1 -d -1 -p ACK -e 38 -c 2 -a 0 -i 0 -k MAC
+ -t 2.735556250 -s 1 -d -1 -p cbr -e 1058 -c 2 -a 0 -i 46 -k MAC 
- -t 2.735556250 -s 1 -d -1 -p cbr -e 1058 -c 2 -a 0 -i 46 -k MAC
h -t 2.735556250 -s 1 -d -1 -p cbr -e 1058 -c 2 -a 0 -i 46 -k MAC
r -t 2.736500756 -s 0 -d -1 -p cbr -e 1000 -c 2 -a 0 -i 46 -k MAC
+ -t 2.736510756 -s 0 -d -1 -p ACK -e 38 -c 2 -a 0 -i 0 -k MAC 
- -t 2.736510756 -s 0 -d -1 -p ACK -e 38 -c 2 -a 0 -i 0 -k MAC
h -t 2.736510756 -s 0 -d -1 -p ACK -e 38 -c 2 -a 0 -i 0 -k MAC
r -t 2.736815262 -s 1 -d -1 -p ACK -e 38 -c 2 -a 0 -i 0 -k MAC
+ -t 2.736925262 -s 1 -d -1 -p cbr -e 81 -c 2 -a 0 -i 47 -k MAC 
- -t 2.736925262 -s 1 -d -1 -p cbr -e 81 -c 2 -a 0 -i 47 -k MAC
h -t 2.736925262 -s 1 -d -1 -p cbr -e 81 -c 2 -a 0 -i 47 -k MAC
r -t 2.737159223 -s 0 -d -1 -p cbr -e 23 -c 2 -a 0 -i 47 -k MAC
+ -t 2.737169223 -s 0 -d -1 -p ACK -e 38 -c 2 -a 0 -i 0 -k MAC 
- -t 2.737169223 -s 0 -d -1 -p ACK -e 38 -c 2 -a 0 -i 0 -k MAC
h -t 2.737169223 -s 0 -d -1 -p ACK -e 38 -c 2 -a 0 -i 0 -k MAC
r -t 2.737473729 -s 1 -d -1 -p ACK -e 38 -c 2 -a 0 -i 0 -k MAC
+ -t 2.767925000 -s 1 -d -1 -p cbr -e 1058 -c 2 -a 0 -i 48 -k MAC 
- -t 2.767925000 -s 1 -d -1 -p cbr -e 1058 -c 2 -a 0 -i 48 -k MAC
h -t 2.767925000 -s 1 -d -1 -p cbr -e 1058 -c 2 -a 0 -i 48 -k MAC
r -t 2.768869506 -s 0 -d -1 -p cbr -e 1000 -c 2 -a 0 -i 48 -k MAC
+ -t 2.768879506 -s 0 -d -1 -p ACK -e 38 -c 2 -a 0 -i 0 -k MAC 
- -t 2.768879506 -s 0 -d -1 -p ACK -e 38 -c 2 -a 0 -i 0 -k MAC
h -t 2.768879506 -s 0 -d -1 -p ACK -e 38 -c 2 -a 0 -i 0 -k MAC
r -t 2.769184012 -s 1 -d -1 -p ACK -e 38 -c 2 -a 0 -i 0 -k MAC
+ -t 2.769354012 -s 1 -d -1 -p cbr -e 81 -c 2 -a 0 -i 49 -k MAC 
- -t 2.769354012 -s 1 -d -1 -p cbr -e 81 -c 2 -a 0 -i 49 -k MAC
h -t 2.769354012 -s 1 -d -1 -p cbr -e 81 -c 2 -a 0 -i 49 -k MAC
r -t 2.769587973 -s 0 -d -1 -p cbr -e 23 -c 2 -a 0 -i 49 -k MAC
+ -t 2.769597973 -s 0 -d -1 -p ACK -e 38 -c 2 -a 0 -i 0 -k MAC 
- -t 2.769597973 -s 0 -d -1 -p ACK -e 38 -c 2 -a 0 -i 0 -k MAC
h -t 2.769597973 -s 0 -d -1 -p ACK -e 38 -c 2 -a 0 -i 0 -k MAC
r -t 2.769902479 -s 1 -d -1 -p ACK -e 38 -c 2 -a 0 -i 0 -k MAC
+ -t 2.799873750 -s 1 -d -1 -p cbr -e 1058 -c 2 -a 0 -i 50 -k MAC 
- -t 2.799873750 -s 1 -d -1 -p cbr -e 1058 -c 2 -a 0 -i 50 -k MAC
h -t 2.799873750 -s 1 -d -1 -p cbr -e 1058 -c 2 -a 0 -i 50 -k MAC
r -t 2.800818256 -s 0 -d -1 -p cbr -e 1000 -c 2 -a 0 -i 50 -k MAC
+ -t 2.800828256 -s 0 -d -1 -p ACK -e 38 -c 2 -a 0 -i 0 -k MAC 
- -t 2.800828256 -s 0 -d -1 -p ACK -e 38 -c 2 -a 0 -i 0 -k MAC
h -t 2.800828256 -s 0 -d -1 -p ACK -e 38 -c 2 -a 0 -i 0 -k MAC
r -t 2.801132762 -s 1 -d -1 -p ACK -e 38 -c 2 -a 0 -i 0 -k MAC
+ -t 2.801302762 -s 1 -d -1 -p cbr -e 81 -c 2 -a 0 -i 51 -k MAC 
- -t 2.801302762 -s 1 -d -1 -p cbr -e 81 -c 2 -a 0 -i 51 -k MAC
h -t 2.801302762 -s 1 -d -1 -p cbr -e 81 -c 2 -a 0 -i 51 -k MAC
r -t 2.801536723 -s 0 -d -1 -p cbr -e 23 -c 2 -a 0 -i 51 -k MAC
+ -t 2.801546723 -s 0 -d -1 -p ACK -e 38 -c 2 -a 0 -i 0 -k MAC 
- -t 2.801546723 -s 0 -d -1 -p ACK -e 38 -c 2 -a 0 -i 0 -k MAC
h -t 2.801546723 -s 0 -d -1 -p ACK -e 38 -c 2 -a 0 -i 0 -k MAC
r -t 2.801851229 -s 1 -d -1 -p ACK -e 38 -c 2 -a 0 -i 0 -k MAC
+ -t 2.831702500 -s 1 -d -1 -p cbr -e 1058 -c 2 -a 0 -i 52 -k MAC 
- -t 2.831702500 -s 1 -d -1 -p cbr -e 1058 -c 2 -a 0 -i 52 -k MAC